10
Properties=species:S:1:pos:R:3:forces:R:3 energy=-6263.5194124683785 stress="0.0 0.0 0.0 0.0 0.0 0.0 0.0 0.0 0.0" pbc="F F F"
O          0.28450       -3.82470        2.92140
H          1.21720       -3.92790        3.15340
C          0.21000       -3.41940        1.58250
H         -0.85090       -3.18120        1.41840
H          0.82280       -2.52890        1.39060
O          0.61350       -4.38880        0.65450
C          0.19600       -5.70580        0.95740
H          0.60560       -6.34700        0.17420
H          0.56170       -6.03410        1.93650
H         -0.90170       -5.78700        0.95160
