18
Properties=species:S:1:pos:R:3:forces:R:3 energy=-6416.045725721709 stress="0.0 0.0 0.0 0.0 0.0 0.0 0.0 0.0 0.0" pbc="F F F"
C          4.46770       -1.44080        0.34570
H          5.53020       -1.18190        0.39250
H          3.99590       -1.04510        1.25210
C          3.84250       -0.85720       -0.92070
H          3.99070        0.23290       -0.92910
H          4.39460       -1.22560       -1.79630
C          2.37050       -1.12870       -1.15260
C          1.88950       -0.69880       -2.51840
H          2.41590       -1.25070       -3.30790
H          0.81870       -0.85520       -2.66330
H          2.09450        0.36700       -2.68500
C          1.58140       -1.67180       -0.22230
H          2.03180       -1.94960        0.72880
C          0.11460       -1.96620       -0.31710
H         -0.07490       -3.03770       -0.17610
H         -0.43530       -1.44690        0.47770
H          4.39470       -2.53430        0.36960
H         -0.32160       -1.67210       -1.27370
