15
Properties=species:S:1:pos:R:3:forces:R:3 energy=-5346.412765474229 stress="0.0 0.0 0.0 0.0 0.0 0.0 0.0 0.0 0.0" pbc="F F F"
C          4.08280        0.35490        0.02610
H          5.15580        0.52320        0.16470
H          3.63250        1.29150       -0.31900
C          3.83130       -0.78300       -0.97170
H          4.29520       -0.53710       -1.93310
H          4.33820       -1.68660       -0.60160
C          2.36400       -1.08270       -1.17440
H          1.90050       -0.78480       -2.11680
C          1.60040       -1.64610       -0.24080
H          2.05570       -1.89870        0.72010
C          0.14460       -1.96920       -0.39530
H         -0.03290       -3.04500       -0.27780
H         -0.45550       -1.46190        0.36980
H          3.65020        0.11750        1.00440
H         -0.22900       -1.66660       -1.37940
