18
Properties=species:S:1:pos:R:3:forces:R:3 energy=-6415.968682183637 stress="0.0 0.0 0.0 0.0 0.0 0.0 0.0 0.0 0.0" pbc="F F F"
C          4.70980       -0.25000       -1.88040
H          5.73850       -0.14170       -1.52300
H          4.73380       -0.85690       -2.79140
C          3.83610       -0.89110       -0.80850
H          4.26910       -1.86280       -0.52680
H          3.88300       -0.27960        0.10530
C          2.36940       -1.10770       -1.16160
C          1.88440       -0.68120       -2.52570
H          2.43310       -1.20220       -3.31790
H          0.82210       -0.88040       -2.67700
H          2.04360        0.39140       -2.68110
C          1.59350       -1.66860       -0.23100
H          2.07040       -1.93120        0.71770
C          0.13320       -1.99340       -0.30900
H         -0.03240       -3.06660       -0.15360
H         -0.42060       -1.47400        0.48260
H          4.34290        0.74520       -2.15190
H         -0.31840       -1.72150       -1.26530
