14
Properties=species:S:1:pos:R:3:forces:R:3 energy=-9710.15868666271 stress="0.0 0.0 0.0 0.0 0.0 0.0 0.0 0.0 0.0" pbc="F F F"
C         -0.12680       -0.09360       -0.05710
H         -0.19400        0.40850       -1.02810
H         -0.24180        0.67400        0.71470
C          1.22880       -0.78930        0.06200
H          1.30480       -1.56530       -0.71160
H          1.28960       -1.30870        1.02820
C          2.39480        0.18490       -0.07260
H          2.37120        0.69380       -1.04320
H          3.35830       -0.32760        0.01280
H          2.35460        0.95470        0.70660
C         -1.31990       -1.03460        0.03990
H         -1.05820       -2.09760       -0.02070
F         -2.20580       -0.77470       -0.96740
F         -1.99140       -0.83600        1.21200
