14
Properties=species:S:1:pos:R:3:forces:R:3 energy=-31478.1848547772 stress="0.0 0.0 0.0 0.0 0.0 0.0 0.0 0.0 0.0" pbc="F F F"
C          2.01870      -24.63910       -0.91490
H          0.97320      -24.66620       -1.19300
C          2.79810      -25.67240       -0.50200
H          2.46470      -26.69620       -0.39210
N          4.10240      -25.36170       -0.20780
C          4.30500      -24.10100       -0.41770
S          2.94340      -23.18700       -0.93900
S          5.88900      -23.29410       -0.19380
C          6.64350      -24.25310        1.10020
H          6.65270      -25.30280        0.79700
H          7.66160      -23.87340        1.21470
H          6.07710      -24.10890        2.02260
O          6.66650      -23.49910       -1.40840
O          5.61250      -21.95670        0.30640
