21
Properties=species:S:1:pos:R:3:forces:R:3 energy=-13945.452578542365 stress="0.0 0.0 0.0 0.0 0.0 0.0 0.0 0.0 0.0" pbc="F F F"
C         29.16870      -17.06670       -1.49680
H         29.65670      -17.65110       -2.27120
C         27.78780      -17.07910       -1.35560
H         27.17360      -17.68810       -2.01220
C         27.21520      -16.30380       -0.35640
H         26.14110      -16.28200       -0.19930
C         28.05950      -15.53890        0.44360
H         27.65270      -14.91000        1.23340
N         29.38350      -15.50650        0.31080
C         29.93200      -16.27270       -0.63390
N         32.13600      -15.13210       -0.82580
C         33.42340      -15.56240       -1.00250
H         34.24140      -14.86120       -1.10190
C         33.47500      -16.92860       -1.01870
H         34.28840      -17.63200       -1.12580
N         32.18040      -17.35550       -0.85130
C         31.41240      -16.22630       -0.74870
C         31.77290      -18.74400       -0.73730
H         32.54700      -19.29790       -0.20040
H         30.84390      -18.80940       -0.16790
H         31.62810      -19.20790       -1.71960
