14
Properties=species:S:1:pos:R:3:forces:R:3 energy=-12410.611414355142 stress="0.0 0.0 0.0 0.0 0.0 0.0 0.0 0.0 0.0" pbc="F F F"
C         -0.14590       -0.00080        0.21910
H          0.07560       -0.60370        1.10440
H          0.17140       -0.57860       -0.65540
C          0.60340        1.33150        0.24340
H          0.33820        1.90350       -0.65130
H          0.26610        1.92240        1.10350
C          2.11360        1.13250        0.31040
H          2.47510        0.56870       -0.55720
H          2.39650        0.57680        1.21180
H          2.64190        2.09090        0.32940
C         -1.65630        0.13820        0.12860
F         -2.19680       -0.79790       -0.67210
F         -2.23590        0.00220        1.33990
F         -2.03850        1.34350       -0.33790
