18
Properties=species:S:1:pos:R:3:forces:R:3 energy=-12980.116246113032 stress="0.0 0.0 0.0 0.0 0.0 0.0 0.0 0.0 0.0" pbc="F F F"
C          4.47150      -23.16160        0.00630
H          5.02490      -24.09710       -0.00680
C          3.08240      -23.14870       -0.00840
H          2.53150      -24.08550       -0.02160
C          2.39710      -21.93580       -0.01140
H          1.31030      -21.92680       -0.02430
C          3.10280      -20.73430       -0.00170
H          2.56750      -19.78800       -0.00770
C          4.49250      -20.74220        0.01670
H          5.04880      -19.80930        0.02990
C          5.17970      -21.95860        0.03280
N          7.42060      -22.97810       -0.31710
C          8.70190      -22.46690       -0.19360
H          9.57810      -23.06270       -0.40660
C          8.63020      -21.18240        0.21260
H          9.34670      -20.40810        0.43650
O          7.31160      -20.86120        0.34790
C          6.64610      -21.99460        0.02050
