17
Properties=species:S:1:pos:R:3:forces:R:3 energy=-12850.134031037645 stress="0.0 0.0 0.0 0.0 0.0 0.0 0.0 0.0 0.0" pbc="F F F"
C         15.46800      -17.02990        0.00710
H         14.52030      -16.50460        0.00710
C         16.68090      -16.36600        0.08280
H         16.72480      -15.28120        0.14570
N         17.85910      -16.98930        0.08440
C         17.81190      -18.31970        0.00750
N         16.70330      -19.07240       -0.07000
C         15.55110      -18.41670       -0.06900
H         14.65510      -19.03210       -0.13200
N         18.97570      -19.06830        0.00150
H         18.81050      -20.06500       -0.06020
C         20.33110      -18.75420        0.06190
C         20.74880      -17.31130        0.15680
H         20.32980      -16.83850        1.04790
H         20.38460      -16.73930       -0.69960
H         21.83800      -17.29250        0.19210
O         21.12970      -19.66930        0.03500
