14
Properties=species:S:1:pos:R:3:forces:R:3 energy=-19198.83477072447 stress="0.0 0.0 0.0 0.0 0.0 0.0 0.0 0.0 0.0" pbc="F F F"
O         21.58110       -4.26580       -0.80970
C         20.91900       -5.92510        0.77730
H         21.14050       -5.70140        1.82690
H         19.90900       -5.59220        0.53220
H         20.99070       -7.01160        0.65890
C         21.90590       -5.20640       -0.11670
C         23.85300       -6.90170       -0.05070
H         23.23140       -7.79080       -0.10600
C         25.27870       -6.91500       -0.01080
H         25.88060       -7.81680       -0.01790
C         25.80410       -5.65730        0.03210
H         26.84940       -5.37720        0.06760
S         24.58750       -4.44700        0.00890
C         23.33490       -5.63660       -0.00620
