14
Properties=species:S:1:pos:R:3:forces:R:3 energy=-4310.455353032619 stress="0.0 0.0 0.0 0.0 0.0 0.0 0.0 0.0 0.0" pbc="F F F"
C          2.14390       -1.85290        0.81880
H          2.29370       -1.98310       -0.26050
H          2.82500       -2.54090        1.33050
C          0.69550       -2.12090        1.23010
H          0.44690       -3.17340        1.04830
C         -0.36020       -1.22590        0.54740
H         -1.24180       -1.15080        1.19540
H         -0.70430       -1.71980       -0.37160
C          0.12000        0.17440        0.16340
H          0.47310        0.73960        1.03520
H         -0.69140        0.74960       -0.29460
H          0.94040        0.12970       -0.56050
H          0.63060       -1.98070        2.31780
H          2.44980       -0.83400        1.07810
