19
Properties=species:S:1:pos:R:3:forces:R:3 energy=-11976.946800175698 stress="0.0 0.0 0.0 0.0 0.0 0.0 0.0 0.0 0.0" pbc="F F F"
C         -0.12240        0.06230       -1.52350
N         -1.48300        0.12490       -1.12040
H         -1.72740        0.89630       -0.51710
C          0.87860        0.49810       -0.65330
H          0.61970        0.83260        0.34920
C          2.20770        0.48930       -1.06160
H          2.98110        0.81920       -0.37250
C          2.54480        0.07230       -2.34590
H          3.58310        0.07110       -2.66690
C          1.54140       -0.34040       -3.21780
H          1.79490       -0.66600       -4.22390
C          0.21090       -0.34860       -2.81310
H         -0.57360       -0.68500       -3.48390
C         -2.32260       -0.96950       -1.11290
C         -3.64820       -0.73000       -0.41380
H         -4.14060        0.16890       -0.79930
H         -3.50270       -0.60030        0.66460
H         -4.28860       -1.59560       -0.58110
O         -2.02590       -2.02420       -1.63840
