18
Properties=species:S:1:pos:R:3:forces:R:3 energy=-6415.990250847378 stress="0.0 0.0 0.0 0.0 0.0 0.0 0.0 0.0 0.0" pbc="F F F"
C          4.81570       -1.16790        0.14840
H          4.41540       -1.95330        0.79920
H          4.99230       -0.27460        0.75650
C          3.83750       -0.87420       -0.99270
H          2.87870       -0.59660       -0.53420
C          3.58280       -2.12030       -1.84930
H          3.22890       -2.95160       -1.22930
H          4.50200       -2.44040       -2.35240
H          2.83050       -1.92070       -2.61970
C          4.25790        0.30100       -1.84860
H          3.44050        0.90400       -2.25230
C          5.49970        0.58350       -2.23610
H          6.33430        0.00320       -1.84470
C          5.87100        1.68150       -3.18690
H          6.38270        1.27720       -4.06840
H          6.56170        2.38990       -2.71430
H          5.78280       -1.51980       -0.22930
H          4.99200        2.23830       -3.52850
