14
Properties=species:S:1:pos:R:3:forces:R:3 energy=-7010.16279801533 stress="0.0 0.0 0.0 0.0 0.0 0.0 0.0 0.0 0.0" pbc="F F F"
C          0.03480       -0.04000       -0.01610
H          0.06070       -0.66730       -0.91760
H          0.04120       -0.71720        0.84740
C         -1.23330        0.81220       -0.01040
H         -1.23720        1.45800       -0.89960
H         -1.19760        1.48230        0.85730
C         -2.50860       -0.02430        0.02160
H         -2.56880       -0.68590       -0.85080
H         -3.40320        0.60690        0.02450
H         -2.54100       -0.65500        0.91770
C          1.29890        0.79280        0.02280
H          1.27530        1.58890       -0.73290
H          2.19070        0.17670       -0.14300
F          1.42000        1.38790        1.27330
