22
Properties=species:S:1:pos:R:3:forces:R:3 energy=-13509.259103241084 stress="0.0 0.0 0.0 0.0 0.0 0.0 0.0 0.0 0.0" pbc="F F F"
C         21.47420      -15.37970        0.83740
H         21.93190      -14.57620        1.40700
C         20.09210      -15.40930        0.69360
H         19.49250      -14.61260        1.12450
C         19.48270      -16.45010       -0.00090
H         18.40270      -16.47040       -0.11910
C         20.26420      -17.47300       -0.53150
H         19.79510      -18.29750       -1.06200
C         21.64460      -17.44970       -0.37830
H         22.25940      -18.25690       -0.76850
C         22.26860      -16.38780        0.28090
N         24.44180      -17.52710        0.49760
C         25.74100      -17.13110        0.66180
H         26.54310      -17.84960        0.77390
C         25.82800      -15.76880        0.64670
H         26.66040      -15.08570        0.73350
N         24.54360      -15.30890        0.47540
C         23.73750      -16.41520        0.41630
C         24.19900      -13.91400        0.27250
H         25.04780      -13.40730       -0.19260
H         23.34220      -13.83760       -0.40060
H         23.97000      -13.40780        1.21700
