14
Properties=species:S:1:pos:R:3:forces:R:3 energy=-8266.79606349338 stress="0.0 0.0 0.0 0.0 0.0 0.0 0.0 0.0 0.0" pbc="F F F"
C          2.80230       -2.97350        0.73090
H          3.20450       -2.14920        0.13690
H          3.46490       -3.84310        0.62540
H          2.82340       -2.65610        1.77770
N          1.43290       -3.22540        0.29560
H          1.34950       -3.23410       -0.71310
C          0.73410       -4.33740        0.77240
N          0.76130       -4.47990        2.13760
H          0.98860       -3.64780        2.66100
C         -0.16060       -5.40890        2.76180
H         -1.18060       -5.01020        2.83930
H          0.20350       -5.66140        3.76060
H         -0.19830       -6.31500        2.15630
O          0.10800       -5.07880        0.03220
