18
Properties=species:S:1:pos:R:3:forces:R:3 energy=-21768.210274934067 stress="0.0 0.0 0.0 0.0 0.0 0.0 0.0 0.0 0.0" pbc="F F F"
C         30.20210       -8.38390       -0.00990
H         30.78870       -7.47040       -0.02650
C         28.81320       -8.34810       -0.01580
H         28.28410       -7.39920       -0.03340
C         28.11660       -9.54910        0.00380
H         27.03070       -9.57490        0.00210
C         28.84710      -10.73300        0.02730
H         28.33920      -11.69490        0.04530
N         30.17860      -10.78730        0.02980
C         30.84200       -9.62460        0.00410
C         33.12910       -9.29790        1.07540
H         32.73050       -8.87690        1.99160
C         34.51520       -9.51270        0.81250
H         35.31380       -9.27060        1.50560
C         34.72460      -10.06340       -0.41620
H         35.66650      -10.33210       -0.87680
S         33.25050      -10.33570       -1.26290
C         32.32460       -9.67850        0.04070
