17
Properties=species:S:1:pos:R:3:forces:R:3 energy=-11375.961290417621 stress="0.0 0.0 0.0 0.0 0.0 0.0 0.0 0.0 0.0" pbc="F F F"
O         19.00070      -11.85190        0.56920
C         19.46700      -10.03360       -0.90170
H         20.08190       -9.98420       -1.80590
H         18.41300      -10.11980       -1.17520
H         19.59880       -9.09780       -0.34680
C         19.83870      -11.22220       -0.03570
N         21.65620      -12.90230        0.02560
C         23.01880      -12.87490       -0.00600
H         23.60170      -13.78700       -0.00850
C         23.46930      -11.58330       -0.02720
H         24.46110      -11.15310       -0.05030
N         22.35160      -10.79040       -0.01170
C         21.27600      -11.64230        0.01820
C         22.37890       -9.34000        0.04290
H         23.39220       -9.02780        0.30280
H         22.11730       -8.89350       -0.92110
H         21.69840       -8.96970        0.81340
