16
Properties=species:S:1:pos:R:3:forces:R:3 energy=-9433.508366833317 stress="0.0 0.0 0.0 0.0 0.0 0.0 0.0 0.0 0.0" pbc="F F F"
C         -2.11870       -0.96520       -2.11130
H         -2.65470       -1.78950       -2.57760
C         -2.81710        0.02390       -1.43410
H         -3.90050       -0.01690       -1.36470
C         -2.11290        1.07270       -0.84260
H         -2.64930        1.85380       -0.30930
C         -0.73140        1.13040       -0.92770
H         -0.16350        1.93810       -0.47440
C         -0.03250        0.13000       -1.61190
C         -0.72730       -0.92250       -2.20650
H         -0.20330       -1.70780       -2.74140
O          1.32060        0.27230       -1.64180
C          2.06310       -0.71510       -2.32180
H          3.10990       -0.42170       -2.23070
H          1.78990       -0.76340       -3.38410
H          1.92250       -1.70610       -1.87040
