11
Properties=species:S:1:pos:R:3:forces:R:3 energy=-7300.739104758069 stress="0.0 0.0 0.0 0.0 0.0 0.0 0.0 0.0 0.0" pbc="F F F"
C          0.87050       -3.12780        2.57140
H          0.39300       -2.24460        3.00090
H          1.95090       -2.95340        2.49100
O          0.28880       -3.30780        1.28670
C          0.78470       -4.36260        0.55870
H          0.68940       -3.98910        3.22830
C          0.21490       -5.70310        0.95240
H          0.63830       -6.03580        1.90780
H          0.46670       -6.43620        0.18490
O          1.57590       -4.19340       -0.32790
H         -0.87010       -5.63080        1.07020
