18
Properties=species:S:1:pos:R:3:forces:R:3 energy=-12979.501727104776 stress="0.0 0.0 0.0 0.0 0.0 0.0 0.0 0.0 0.0" pbc="F F F"
C         12.71780       -7.66150        0.00870
H         13.27480       -6.72910        0.00790
C         11.32890       -7.67300        0.03020
H         10.76890       -6.74150        0.05460
C         10.67280       -8.89740        0.01410
H          9.58830       -8.95970        0.02640
C         11.44200      -10.05540       -0.02180
H         10.96620      -11.03410       -0.04000
N         12.77460      -10.06230       -0.03500
C         13.39870       -8.88070       -0.01040
C         15.78530       -9.31370        0.89000
H         15.55940       -9.80980        1.82350
C         17.07290       -8.97080        0.36150
H         18.03820       -9.14660        0.81750
C         16.83550       -8.37760       -0.83470
H         17.46960       -7.95400       -1.59980
O         15.50330       -8.31940       -1.08560
C         14.87540       -8.91720       -0.03570
