34
astex_1of1_10.log	Energy: -550391.1974199
O          4.73116        1.39026        0.17807
C          3.49064        1.33329        0.84275
C          2.74408        0.04146        0.52816
C          2.37275       -0.05955       -0.96630
O          3.47050       -0.29371       -1.82871
C          1.22489       -1.07803       -1.03368
C          0.45805       -0.81357        0.26206
N         -0.92399       -0.41881        0.17409
C         -1.86620       -1.43389        0.03991
O         -1.57753       -2.61295        0.03180
N         -3.16487       -0.97595       -0.08216
C         -3.61560        0.34482       -0.15143
O         -4.79891        0.59223       -0.28074
C         -2.54851        1.34641       -0.06017
C         -1.28421        0.91543        0.08874
C         -2.94342        2.78964       -0.14010
C          1.40140       -0.12293        1.22990
C          0.91541       -1.51866        1.49653
H          4.58343        1.09223       -0.73363
H          3.70141        1.40579        1.91547
H          2.84745        2.19304        0.57704
H          3.41267       -0.79597        0.78233
H          1.98191        0.91868       -1.28003
H          3.85398       -1.15077       -1.59479
H          0.59580       -0.93858       -1.91685
H          1.61214       -2.10498       -1.06401
H         -3.87009       -1.69665       -0.17083
H         -0.44921        1.60667        0.16364
H         -3.64468        3.04379        0.66124
H         -3.45477        2.99797       -1.08541
H         -2.07008        3.44419       -0.06263
H          1.04292        0.67361        1.87967
H          1.60605       -2.35106        1.38264
H          0.17571       -1.64773        2.28096
