43
astex_1meh_09.log	Energy: -697123.2594526
C         -3.59911       -1.93346       -0.52345
O         -3.44365       -3.11878       -0.60917
C         -2.67546       -0.86144       -0.08792
C         -3.33171        0.35432       -0.17510
C         -4.72447        0.08097       -0.67269
O         -4.78872       -1.33127       -0.85316
C         -2.73179        1.56247        0.14710
C         -3.45370        2.87935        0.04035
C         -1.40411        1.47541        0.59092
C         -0.70960        0.26237        0.71635
C         -1.35288       -0.93019        0.34788
O         -0.74560       -2.13206        0.42476
C          0.69599        0.21612        1.27758
C          1.69961       -0.32309        0.28646
C          2.63499       -1.26253        0.48272
C          3.57378       -1.63584       -0.64718
C          4.93699       -0.94739       -0.53508
C          4.86860        0.52544       -0.86422
O          3.99283        1.07498       -1.49001
O          5.94688        1.18791       -0.40247
C          2.88110       -1.98527        1.78385
O         -0.76145        2.63658        0.96001
C         -0.08722        3.27272       -0.11638
H         -5.49670        0.38046        0.04593
H         -4.93522        0.56875       -1.63140
H         -3.42261        3.27915       -0.98148
H         -4.50906        2.77244        0.31484
H         -3.00170        3.62046        0.70408
H          0.21562       -1.99739        0.45615
H          0.97906        1.23154        1.57308
H          0.69131       -0.38118        2.19758
H          1.65078        0.13041       -0.70429
H          3.12913       -1.36718       -1.61001
H          3.73163       -2.72164       -0.64967
H          5.65083       -1.39260       -1.24030
H          5.38285       -1.06305        0.45858
H          5.84149        2.10976       -0.69083
H          2.77063       -3.06863        1.64959
H          3.90739       -1.81565        2.13319
H          2.20947       -1.67267        2.58649
H          0.35502        4.18532        0.28830
H         -0.78475        3.53174       -0.92354
H          0.70651        2.63138       -0.52324
