43
astex_1meh_11.log	Energy: -697124.6369049
C         -3.97259       -2.00792       -0.24386
O         -3.87391       -3.18680        0.01846
C         -3.01736       -0.94284        0.03698
C         -3.51872        0.26125       -0.41852
C         -4.86250       -0.04173       -1.03285
O         -5.04397       -1.46048       -0.87053
C         -2.81586        1.44418       -0.26337
C         -3.35271        2.77379       -0.72312
C         -1.56615        1.32255        0.38111
C         -1.04766        0.11578        0.87829
C         -1.79646       -1.05122        0.69066
O         -1.33740       -2.23824        1.13424
C          0.27712        0.05837        1.60441
C          1.42287       -0.27293        0.68102
C          2.52477        0.44997        0.45518
C          3.58155       -0.05585       -0.50035
C          4.91267       -0.35334        0.19044
C          5.96488       -0.85217       -0.78496
O          5.80921       -0.93391       -1.97301
O          7.14648       -1.20871       -0.22721
C          2.81570        1.78271        1.10250
O         -0.82088        2.46109        0.58082
C         -0.07701        2.86277       -0.56421
H         -4.90928        0.18519       -2.10287
H         -5.69147        0.46645       -0.52858
H         -3.15528        2.95093       -1.78802
H         -4.43793        2.82684       -0.58093
H         -2.89691        3.58951       -0.15614
H         -2.00928       -2.91440        0.91513
H          0.44108        1.00496        2.12234
H          0.20945       -0.72675        2.36734
H          1.31409       -1.22225        0.15374
H          3.76413        0.68443       -1.29021
H          3.23656       -0.96440       -1.00403
H          4.76979       -1.10606        0.97851
H          5.31015        0.54366        0.68585
H          7.10733       -1.09398        0.73231
H          1.92395        2.24361        1.53463
H          3.55996        1.68819        1.90403
H          3.22997        2.48253        0.36507
H          0.62028        2.07349       -0.86997
H         -0.73914        3.10905       -1.40398
H          0.48113        3.75514       -0.27259
