43
astex_1meh_14.log	Energy: -697120.2467483
C          1.34919        2.74528       -0.01361
O          0.38024        3.45487       -0.01763
C          1.46603        1.28361       -0.18842
C          2.78667        0.91157       -0.02296
C          3.57613        2.17167        0.21059
O          2.61213        3.22618        0.20424
C          3.20038       -0.41174       -0.07309
C          4.64410       -0.81142        0.08081
C          2.18289       -1.35739       -0.28172
C          0.83164       -1.01965       -0.47328
C          0.47867        0.33887       -0.44146
O         -0.78449        0.77772       -0.65187
C         -0.23253       -2.08597       -0.68115
C         -1.36804       -1.87901        0.29589
C         -2.67319       -1.69713        0.04874
C         -3.56330       -1.20756        1.17962
C         -3.41116        0.31099        1.39291
C         -3.99376        1.10215        0.22559
O         -5.10761        0.88561       -0.18654
O         -3.24036        2.05943       -0.33239
C         -3.33759       -1.85927       -1.29495
O          2.52417       -2.68934       -0.33659
C          2.63441       -3.30017        0.94096
H          4.09255        2.17844        1.17686
H          4.31192        2.36380       -0.57887
H          5.30428       -0.08924       -0.41198
H          4.94485       -0.86032        1.13523
H          4.82096       -1.79263       -0.36659
H         -1.38007        0.01028       -0.67961
H         -0.59304       -2.05623       -1.71702
H          0.23010       -3.06856       -0.54990
H         -1.03695       -1.74541        1.32940
H         -3.30159       -1.71836        2.11280
H         -4.61610       -1.41875        0.96615
H         -3.98214        0.61213        2.27913
H         -2.36165        0.56618        1.57629
H         -2.31750        2.05076       -0.02298
H         -4.04205       -2.69889       -1.24838
H         -3.93084       -0.97498       -1.55410
H         -2.63252       -2.06512       -2.10469
H          1.67932       -3.25481        1.48184
H          2.90397       -4.34335        0.76571
H          3.41055       -2.81963        1.55005
