43
astex_1meh_30.log	Energy: -697113.2035820
C          4.11548       -1.74395       -0.19242
O          4.26175       -2.89600        0.10326
C          2.99149       -0.81338        0.05997
C          3.30172        0.41924       -0.48575
C          4.66284        0.30404       -1.11521
O          5.07130       -1.04164       -0.88333
C          2.44516        1.50905       -0.42654
C          2.78396        2.83641       -1.05143
C          1.22848        1.28147        0.23186
C          0.86931        0.04472        0.79164
C          1.77086       -1.02504        0.69835
O          1.50801       -2.25407        1.19516
C         -0.49262       -0.15200        1.42766
C         -1.44355       -0.89870        0.52094
C         -2.52632       -0.39559       -0.07776
C         -3.38768       -1.29467       -0.93764
C         -4.78728       -1.56163       -0.34875
C         -5.70413       -0.35126       -0.29930
O         -6.19261        0.09360        0.70401
O         -5.96620        0.23226       -1.49527
C         -2.97177        1.04234        0.05082
O          0.31513        2.31106        0.30723
C          0.56348        3.21628        1.37425
H          4.64504        0.48561       -2.19650
H          5.39845        0.97893       -0.66274
H          1.87486        3.40648       -1.25912
H          3.32064        2.69763       -1.99652
H          3.42469        3.44484       -0.40033
H          0.66241       -2.24014        1.66148
H         -0.38777       -0.69819        2.37870
H         -0.91141        0.81797        1.69711
H         -1.19552       -1.94544        0.33195
H         -2.89047       -2.26118       -1.07261
H         -3.47881       -0.85568       -1.94345
H         -4.69771       -1.93511        0.67385
H         -5.28631       -2.33807       -0.94461
H         -5.52338       -0.25178       -2.20610
H         -3.69610        1.16573        0.86498
H         -2.12681        1.71363        0.22539
H         -3.47225        1.37413       -0.86601
H          0.51927        2.70309        2.34397
H          1.54472        3.69605        1.27066
H         -0.21914        3.97598        1.32711
