43
astex_1meh_10.log	Energy: -697121.0507762
C         -0.55860        2.70983       -0.67065
O          0.42535        3.18908       -1.16889
C         -0.95934        1.29620       -0.52863
C         -2.13491        1.23266        0.19270
C         -2.55462        2.64817        0.48471
O         -1.53237        3.46805       -0.08654
C         -2.71809        0.02622        0.55259
C         -3.99097       -0.05021        1.35274
C         -2.02538       -1.12335        0.14381
C         -0.82535       -1.10378       -0.59312
C         -0.29737        0.14711       -0.94793
O          0.83538        0.31123       -1.67736
C         -0.12168       -2.41283       -0.93030
C          1.39345       -2.34585       -0.86270
C          2.10143       -1.87939        0.17679
C          3.58453       -1.61304        0.02848
C          3.86649       -0.14765       -0.37049
C          3.40736        0.81183        0.72050
O          3.88102        0.76756        1.82910
O          2.43010        1.68381        0.43228
C          1.46431       -1.49474        1.48959
O         -2.52337       -2.34810        0.52754
C         -3.43419       -2.91073       -0.40522
H         -2.61154        2.86158        1.55807
H         -3.51277        2.91262        0.02399
H         -4.02587        0.74113        2.10964
H         -4.06815       -1.01340        1.86246
H         -4.87723        0.06826        0.71654
H          1.29336       -0.54667       -1.70914
H         -0.41173       -2.73824       -1.93796
H         -0.50423       -3.17795       -0.24529
H          1.93476       -2.65759       -1.75913
H          4.10697       -1.81067        0.97057
H          4.01177       -2.26966       -0.73794
H          4.94790       -0.01096       -0.47340
H          3.41164        0.08330       -1.33962
H          2.09522        1.61029       -0.48041
H          0.52399       -2.02849        1.65521
H          2.14447       -1.71400        2.31846
H          1.24724       -0.42034        1.53522
H         -2.95053       -3.08649       -1.37517
H         -3.76404       -3.86267        0.01518
H         -4.30264       -2.25591       -0.55363
