43
astex_1meh_15.log	Energy: -697122.6285358
C         -3.25950       -2.37460        0.00045
O         -2.86227       -3.45967       -0.36442
C         -2.59021       -1.08529       -0.12520
C         -3.38114       -0.09749        0.42962
C         -4.62927       -0.78115        0.92928
O         -4.45069       -2.17500        0.61798
C         -2.96944        1.22441        0.46502
C         -3.78983        2.31781        1.09639
C         -1.70343        1.47192       -0.10519
C         -0.87864        0.48740       -0.67065
C         -1.33591       -0.83522       -0.66850
O         -0.58509       -1.82962       -1.18247
C          0.49460        0.82338       -1.20905
C          1.51098        0.94349       -0.10052
C          2.53456        0.12067        0.14374
C          3.47022        0.42453        1.29399
C          4.89563        0.81352        0.85594
C          5.70777       -0.29725        0.21149
O          6.21964       -0.22508       -0.87307
O          5.85676       -1.42128        0.95556
C          2.84957       -1.11318       -0.66874
O         -1.20772        2.75603       -0.07275
C         -1.69650        3.58588       -1.11698
H         -5.53984       -0.43612        0.42890
H         -4.76657       -0.68927        2.01200
H         -3.14704        3.13671        1.42960
H         -4.52919        2.73131        0.39868
H         -4.33929        1.94148        1.96643
H         -1.08790       -2.66283       -1.08228
H          0.45052        1.77840       -1.74488
H          0.79009        0.06180       -1.93392
H          1.35729        1.79962        0.55795
H          3.06507        1.25299        1.88488
H          3.50639       -0.44201        1.97387
H          5.45766        1.16814        1.73103
H          4.85419        1.63294        0.13479
H          5.39863       -1.32173        1.80166
H          1.96186       -1.51747       -1.16111
H          3.60828       -0.90593       -1.43336
H          3.25901       -1.90263       -0.02742
H         -1.20548        4.55393       -1.00112
H         -2.78360        3.71910       -1.04756
H         -1.45193        3.16563       -2.10111
