34
astex_1of1_03.log	Energy: -550395.4130072
O          4.40866        1.58733       -0.09540
C          3.10558        1.44989        0.44996
C          2.82166       -0.04093        0.58274
C          2.75364       -0.72590       -0.80458
O          3.17097       -2.08671       -0.75364
C          1.27126       -0.71000       -1.20059
C          0.50398       -0.66625        0.11175
N         -0.85219       -0.17305        0.08398
C         -1.05002        1.19025       -0.08098
O         -0.14442        2.00020       -0.16364
N         -2.37950        1.56009       -0.14372
C         -3.51147        0.74017       -0.11567
O         -4.62653        1.21895       -0.19612
C         -3.20808       -0.68700        0.01043
C         -1.91812       -1.05631        0.09544
C         -4.36202       -1.64276        0.03294
C          1.45648       -0.27410        1.20483
C          0.88008       -1.66265        1.17105
H          4.54273        2.51670       -0.31344
H          3.04049        1.92378        1.44223
H          2.34085        1.91705       -0.18655
H          3.63135       -0.48835        1.17527
H          3.37049       -0.17587       -1.52581
H          4.10411       -2.08878       -0.50443
H          1.04248        0.19992       -1.76568
H          1.03196       -1.57926       -1.82191
H         -2.54616        2.55233       -0.25413
H         -1.62376       -2.09757        0.18870
H         -5.04381       -1.40530        0.85592
H         -4.94402       -1.56874       -0.89151
H         -4.01808       -2.67495        0.14841
H          1.11872        0.39440        1.99296
H          1.51558       -2.49254        0.87738
H          0.13158       -1.88671        1.92721
