22
astex_1n2j_08.log	Energy: -336739.6818634
O         -2.42947        0.67710       -0.87397
C         -1.75828       -0.12734       -0.26908
O         -2.23356       -0.82603        0.77285
C         -0.29788       -0.41412       -0.58454
O         -0.03661       -1.76139       -0.29566
C          0.64970        0.57264        0.16437
C          0.68370        0.25884        1.66296
C          0.21102        2.02312       -0.07207
C          2.05616        0.43503       -0.43149
O          2.53341       -0.89752       -0.26103
H         -3.16026       -0.54847        0.86740
H         -0.20360       -0.20461       -1.66338
H          0.92786       -1.86610       -0.35057
H          1.36800        0.94471        2.17654
H          1.01726       -0.76521        1.84466
H         -0.31038        0.37076        2.10735
H         -0.74074        2.23699        0.42177
H          0.96022        2.71489        0.33060
H          0.07874        2.23844       -1.13857
H          2.02592        0.69753       -1.50063
H          2.72880        1.14346        0.07505
H          3.37154       -0.98873       -0.72863
