22
astex_1n2j_09.log	Energy: -336739.2095772
O         -2.21319       -1.11433        0.63475
C         -1.76375       -0.25218       -0.07874
O         -2.49291        0.82323       -0.40635
C         -0.33811       -0.34997       -0.62668
O          0.04790       -1.70271       -0.53764
C          0.66070        0.58752        0.11027
C          0.31962        2.05642       -0.16825
C          0.65148        0.31353        1.61518
C          2.07199        0.31673       -0.46077
O          2.63294       -0.91170       -0.07921
H         -1.99226        1.39630       -1.00522
H         -0.34551       -0.07609       -1.69368
H         -0.55546       -2.10848        0.11127
H         -0.61669        2.36040        0.31270
H          1.10406        2.70587        0.23420
H          0.25358        2.26448       -1.24629
H          1.39747        0.94155        2.11443
H         -0.32584        0.52825        2.06290
H          0.91050       -0.72753        1.82206
H          2.03447        0.42368       -1.56086
H          2.75018        1.09293       -0.08607
H          1.97588       -1.58955       -0.30390
