43
astex_1meh_22.log	Energy: -697115.9451144
C          3.42250       -2.23854       -0.00044
O          3.13877       -3.37557        0.24905
C          2.60959       -1.00127        0.05215
C          3.39748        0.06639       -0.33888
C          4.76572       -0.47337       -0.65310
O          4.67905       -1.87611       -0.41823
C          2.92368        1.36798       -0.41551
C          3.78653        2.51497       -0.87053
C          1.58034        1.54058       -0.05300
C          0.74309        0.48425        0.34524
C          1.26936       -0.81744        0.39051
O          0.54263       -1.88852        0.76660
C         -0.69725        0.74549        0.73909
C         -1.68609       -0.06422       -0.06937
C         -2.71192       -0.80941        0.37426
C         -3.60634       -1.52932       -0.62784
C         -4.49696       -0.59593       -1.47189
C         -5.47160        0.22033       -0.63786
O         -6.66008        0.04680       -0.62737
O         -4.91520        1.18184        0.13771
C         -3.09640       -0.98454        1.82140
O          1.03878        2.80546       -0.11458
C          1.29321        3.58955        1.04245
H          5.54531       -0.05506       -0.00610
H          5.05550       -0.30728       -1.69751
H          4.41828        2.89852       -0.05911
H          3.17012        3.33965       -1.23697
H          4.45494        2.20415       -1.68124
H         -0.39969       -1.65966        0.74747
H         -0.82850        0.55846        1.81177
H         -0.89609        1.80990        0.57720
H         -1.51415       -0.02944       -1.14844
H         -2.98755       -2.11512       -1.31670
H         -4.24816       -2.24296       -0.09883
H         -5.09641       -1.18696       -2.16742
H         -3.86519        0.08159       -2.06057
H         -3.94997        1.16560        0.03573
H         -2.41461       -0.49134        2.51785
H         -4.10074       -0.57697        1.99005
H         -3.13570       -2.05013        2.07640
H          2.36974        3.72823        1.20312
H          0.82397        4.56028        0.87107
H          0.85761        3.12437        1.93678
