43
astex_1meh_21.log	Energy: -697122.2733654
C          3.69309       -1.69944       -0.70721
O          3.74238       -2.88662       -0.46880
C          2.74236       -0.72049       -0.19343
C          3.02875        0.52389       -0.72144
C          4.23059        0.34156       -1.61467
O          4.55579       -1.05845       -1.53398
C          2.26026        1.63446       -0.41400
C          2.51928        2.99576       -1.00301
C          1.18709        1.39320        0.46854
C          0.87118        0.13938        1.01421
C          1.67101       -0.95288        0.66060
O          1.41226       -2.18741        1.13752
C         -0.33633       -0.04653        1.90686
C         -1.61814       -0.07541        1.10939
C         -2.40317       -1.13436        0.89738
C         -3.68532       -1.04978        0.09620
C         -4.06958        0.33891       -0.42355
C         -5.38382        0.32139       -1.18201
O         -6.38289        0.88678       -0.82927
O         -5.38732       -0.40880       -2.32531
C         -2.12626       -2.51805        1.43510
O          0.35174        2.43925        0.78956
C          0.84807        3.27759        1.82371
H          4.02841        0.58240       -2.66380
H          5.10495        0.91156       -1.28449
H          1.59375        3.57545       -1.05274
H          2.92414        2.91212       -2.01759
H          3.24343        3.56921       -0.41055
H          2.08781       -2.79299        0.77111
H         -0.20876       -0.96102        2.48973
H         -0.39034        0.78362        2.62067
H         -1.88317        0.88785        0.67652
H         -3.60717       -1.76076       -0.74109
H         -4.50783       -1.43501        0.71634
H         -3.28107        0.72833       -1.08163
H         -4.19024        1.04087        0.40415
H         -4.50864       -0.77994       -2.48438
H         -1.07085       -2.67599        1.66843
H         -2.71696       -2.71195        2.33979
H         -2.41668       -3.27779        0.69951
H          0.08895        4.04318        1.99441
H          1.79052        3.75841        1.53313
H          1.00977        2.70921        2.74876
