34
astex_1of1_08.log	Energy: -550391.8099394
O          4.09273        2.14357       -0.36376
C          2.82949        1.87569        0.21387
C          2.77178        0.38766        0.53178
C          2.80692       -0.46677       -0.76237
O          3.45474       -1.71518       -0.56130
C          1.33896       -0.75241       -1.11328
C          0.57924       -0.66035        0.20013
N         -0.83591       -0.39026        0.14458
C         -1.69736       -1.46994       -0.02379
O         -1.32695       -2.62396       -0.07441
N         -3.03007       -1.10747       -0.12589
C         -3.58236        0.17424       -0.14785
O         -4.78232        0.33527       -0.26713
C         -2.59569        1.25048       -0.02084
C         -1.30139        0.91175        0.10993
C         -3.10118        2.66082       -0.04535
C          1.46465        0.02399        1.21458
C          1.12134       -1.43364        1.35627
H          4.12264        3.07425       -0.61399
H          2.68145        2.45677        1.13798
H          2.01055        2.14018       -0.47849
H          3.64357        0.14844        1.15482
H          3.31155        0.08748       -1.56425
H          4.37957       -1.52967       -0.35355
H          1.23919       -1.73009       -1.59371
H          0.95785        0.01053       -1.80418
H         -3.67673       -1.87794       -0.23840
H         -0.52163        1.66207        0.21075
H         -2.28221        3.37778        0.06775
H         -3.82580        2.82596        0.75863
H         -3.62136        2.86886       -0.98613
H          1.04241        0.71523        1.94264
H          1.87960       -2.18175        1.14910
H          0.40933       -1.69065        2.13449
