34
astex_1of1_01.log	Energy: -550400.3068738
O          2.52984        2.09814       -0.69782
C          3.31051        1.51853        0.31828
C          2.97964        0.04238        0.57310
C          2.89419       -0.74970       -0.75788
O          3.30039       -2.10800       -0.61212
C          1.40949       -0.75088       -1.14465
C          0.65578       -0.61647        0.16953
N         -0.71843       -0.16963        0.12458
C         -1.00663        1.18009        0.07345
O         -0.16649        2.06810        0.10912
N         -2.35055        1.47097       -0.00832
C         -3.42858        0.58237       -0.08794
O         -4.56810        0.99636       -0.16841
C         -3.03512       -0.82810       -0.06429
C         -1.72722       -1.11821        0.03719
C         -4.12194       -1.85512       -0.15836
C          1.61470       -0.13920        1.22158
C          1.04897       -1.53097        1.29609
H          1.61280        2.16984       -0.37694
H          4.35239        1.59601       -0.01556
H          3.23050        2.07971        1.26394
H          3.77267       -0.38041        1.20760
H          3.49420       -0.26094       -1.53704
H          4.23207       -2.10779       -0.35895
H          1.19904        0.12743       -1.76247
H          1.15814       -1.65787       -1.70499
H         -2.57697        2.45735       -0.03829
H         -1.36441       -2.14162        0.06436
H         -4.67674       -1.74420       -1.09563
H         -3.71248       -2.86840       -0.11122
H         -4.84433       -1.72895        0.65441
H          1.28833        0.58390        1.96487
H          0.30055       -1.70234        2.06605
H          1.68920       -2.37615        1.06323
