43
astex_1meh_03.log	Energy: -697129.2384570
C         -3.27729       -2.08075       -0.14582
O         -3.28271       -3.11441        0.48668
C         -2.46316       -0.89283        0.08126
C         -2.76522        0.06431       -0.86963
C         -3.82825       -0.53546       -1.75548
O         -4.06904       -1.85139       -1.22346
C         -2.12775        1.29180       -0.88385
C         -2.42210        2.35238       -1.91167
C         -1.16121        1.48266        0.12847
C         -0.81873        0.52070        1.09091
C         -1.50093       -0.70295        1.06346
O         -1.22615       -1.65661        1.97407
C          0.26372        0.75001        2.12412
C          1.45361       -0.16978        1.94131
C          2.49035        0.02942        1.12240
C          3.61101       -0.98588        1.06459
C          3.83160       -1.58209       -0.33136
C          4.67697       -0.70586       -1.22436
O          5.53573        0.06055       -0.85607
O          4.39627       -0.89339       -2.53051
C          2.62883        1.21981        0.20845
O         -0.48893        2.68518        0.14853
C         -1.16420        3.70005        0.87703
H         -4.77332        0.01675       -1.73231
H         -3.50944       -0.64421       -2.79765
H         -3.29908        2.95354       -1.63898
H         -2.62710        1.90328       -2.88986
H         -1.57152        3.02993       -2.01885
H         -1.80422       -2.42194        1.78287
H         -0.16149        0.57423        3.11921
H          0.57741        1.79588        2.08547
H          1.42724       -1.08639        2.52886
H          3.39771       -1.79733        1.76821
H          4.55296       -0.51903        1.38052
H          4.37275       -2.53366       -0.24822
H          2.88443       -1.80513       -0.83257
H          5.01288       -0.32294       -3.01904
H          3.60918        1.69442        0.33336
H          1.84559        1.96629        0.36053
H          2.56480        0.90610       -0.84305
H         -1.29182        3.41132        1.92848
H         -2.15020        3.91145        0.44321
H         -0.54151        4.59479        0.81682
