43
astex_1meh_23.log	Energy: -697117.1953141
C         -2.04892        2.76409        0.32414
O         -1.25185        3.59789        0.65119
C         -1.94768        1.28755        0.28719
C         -3.14093        0.77097       -0.18549
C         -4.05944        1.93076       -0.45567
O         -3.30622        3.09280       -0.11667
C         -3.36144       -0.58790       -0.35451
C         -4.66951       -1.13463       -0.86146
C         -2.28743       -1.41963       -0.00494
C         -1.06692       -0.93993        0.49883
C         -0.89210        0.44745        0.63875
O          0.24539        0.99571        1.11428
C          0.02973       -1.89472        0.93131
C          1.34042       -1.62013        0.23300
C          2.54682       -1.41431        0.77987
C          3.72010       -1.05008       -0.10400
C          3.94610        0.46330       -0.13578
C          5.14977        0.84526       -0.98065
O          5.90059        0.05420       -1.48446
O          5.34850        2.17279       -1.13786
C          2.85432       -1.49150        2.25442
O         -2.44824       -2.78254       -0.12305
C         -2.15236       -3.27458       -1.42137
H         -4.35804        1.99974       -1.50803
H         -4.96586        1.90565        0.16095
H         -4.75163       -1.05020       -1.95274
H         -4.77593       -2.18878       -0.59440
H         -5.51593       -0.58858       -0.42985
H          0.94407        0.32120        1.10251
H          0.14882       -1.83408        2.02003
H         -0.30115       -2.91642        0.72135
H          1.26489       -1.55038       -0.85476
H          3.55606       -1.40181       -1.12754
H          4.63687       -1.53637        0.24819
H          4.10278        0.86161        0.87695
H          3.05384        0.97043       -0.52899
H          4.65408        2.67293       -0.68619
H          3.42995       -0.61828        2.58491
H          1.96432       -1.56386        2.88397
H          3.47680       -2.37186        2.45593
H         -2.32449       -4.35236       -1.39413
H         -1.10487       -3.07774       -1.68835
H         -2.80323       -2.81953       -2.17915
