22
astex_1n2j_05.log	Energy: -336744.9450809
O          1.86271       -0.98416       -0.50224
C          1.55293        0.04428        0.06548
O          2.33818        1.12940        0.03998
C          0.25913        0.25692        0.85221
O          0.06218       -0.82512        1.72412
C         -0.94448        0.49776       -0.10130
C         -2.22354        0.49021        0.74333
C         -0.79475        1.85204       -0.80167
C         -1.02055       -0.60822       -1.17617
O         -0.77182       -1.91357       -0.66672
H          3.11966        0.89428       -0.48966
H          0.39516        1.14801        1.47479
H         -0.32153       -1.53670        1.18148
H         -3.08177        0.77078        0.12148
H         -2.41689       -0.49708        1.17035
H         -2.15351        1.20563        1.57060
H          0.15728        1.93669       -1.33885
H         -0.84474        2.67307       -0.07767
H         -1.60302        1.99807       -1.52798
H         -2.02782       -0.61414       -1.60867
H         -0.31605       -0.38988       -1.99048
H          0.19080       -2.03911       -0.73785
