43
astex_1meh_01.log	Energy: -697130.6957034
C         -3.98013       -2.00542        0.23832
O         -3.88542       -3.18292       -0.03164
C         -3.02366       -0.94063       -0.03893
C         -3.52096        0.26150        0.42637
C         -4.86338       -0.04253        1.04299
O         -5.04833       -1.45981        0.87243
C         -2.81600        1.44375        0.27685
C         -3.34787        2.77144        0.74778
C         -1.56876        1.32384       -0.37297
C         -1.05401        0.11946       -0.87967
C         -1.80496       -1.04713       -0.69724
O         -1.35011       -2.23223       -1.15011
C          0.26866        0.06418       -1.60992
C          1.41724       -0.27228       -0.69163
C          2.52070        0.44839       -0.46658
C          3.58044       -0.06135        0.48388
C          4.91624       -0.33173       -0.20853
C          5.96039       -0.84975        0.74803
O          5.81191       -1.02566        1.93344
O          7.12758       -1.10558        0.12107
C          2.81152        1.78308       -1.10947
O         -0.82289        2.46279       -0.56767
C         -0.06960        2.85202        0.57544
H         -5.69281        0.47050        0.54440
H         -4.90650        0.17792        2.11453
H         -4.43324        2.82900        0.60836
H         -3.14755        2.94000        1.81356
H         -2.89059        3.58994        0.18604
H         -2.02284       -2.90823       -0.93358
H          0.43182        1.01313       -2.12379
H          0.19797       -0.71700       -2.37657
H          1.30981       -1.22430       -0.16902
H          3.74733        0.67084        1.28559
H          3.24084       -0.98033        0.97259
H          5.32233        0.57116       -0.68110
H          4.79916       -1.06613       -1.01503
H          7.73302       -1.43186        0.80708
H          3.55705        1.68958       -1.90960
H          1.92020        2.24548       -1.54096
H          3.22557        2.48052       -0.36954
H         -0.72519        3.09156        1.42243
H          0.62837        2.05844        0.86807
H          0.48821        3.74596        0.28806
