22
astex_1n2j_15.log	Energy: -336738.2201699
O          1.39417       -1.84842       -0.41380
C          1.60427       -0.68570       -0.17454
O          2.66617       -0.28500        0.52826
C          0.66080        0.43346       -0.62720
O          1.32365        1.65458       -0.32399
C         -0.73197        0.33539        0.04395
C         -1.52494        1.61212       -0.26666
C         -0.58607        0.17555        1.56060
C         -1.50018       -0.86199       -0.55246
O         -2.80083       -0.98305       -0.00229
H          2.64912        0.68928        0.55843
H          0.54219        0.32601       -1.71614
H          0.78310        2.39348       -0.62763
H         -2.56861        1.46292        0.02266
H         -1.14628        2.47856        0.28882
H         -1.51088        1.84329       -1.34091
H         -0.13043       -0.78754        1.82207
H         -1.56655        0.23457        2.04461
H          0.03914        0.97240        1.97787
H         -1.63776       -0.70233       -1.62942
H         -0.92328       -1.78441       -0.42606
H         -2.72654       -1.48420        0.81806
