22
astex_1n2j_04.log	Energy: -336742.6253591
O         -2.64472       -0.14555        0.25325
C         -1.59131        0.36679       -0.05921
O         -1.41814        1.67583       -0.00353
C         -0.45135       -0.53120       -0.59908
O         -0.90955       -1.85147       -0.51426
C          0.92855       -0.40588        0.12063
C          0.73937       -0.24049        1.63177
C          1.72348       -1.69102       -0.16070
C          1.77634        0.72770       -0.46198
O          1.18332        2.00509       -0.21896
H         -0.48051        1.91571       -0.19452
H         -0.30800       -0.25273       -1.66022
H         -1.83895       -1.77707       -0.22631
H          0.28200        0.72157        1.88405
H          0.09299       -1.04008        2.00935
H          1.70133       -0.30494        2.15284
H          1.84059       -1.86412       -1.23722
H          2.72082       -1.62407        0.28979
H          1.20601       -2.55487        0.25742
H          1.90079        0.57024       -1.54361
H          2.76987        0.70089        0.00515
H          1.67528        2.68290       -0.69714
