43
astex_1meh_27.log	Energy: -697114.1733853
C          2.15008        2.74532        0.57197
O          1.40476        3.53543        1.07790
C          1.99984        1.29363        0.31828
C          3.14875        0.82800       -0.29551
C          4.08211        1.99651       -0.45388
O          3.38870        3.10918        0.10419
C          3.31790       -0.49367       -0.68075
C          4.56367       -0.97759       -1.37429
C          2.24284       -1.34629       -0.39146
C          1.05601       -0.91540        0.22498
C          0.92903        0.43896        0.57720
O         -0.17240        0.93719        1.17530
C         -0.06106       -1.89563        0.52738
C         -1.38091       -1.49301       -0.08563
C         -2.56834       -1.35322        0.51982
C         -3.77615       -0.92519       -0.28596
C         -4.12773        0.56094       -0.07647
C         -5.34629        0.94902       -0.89573
O         -5.30511        1.57788       -1.91678
O         -6.53235        0.48515       -0.42845
C         -2.82892       -1.60023        1.98505
O          2.34040       -2.67238       -0.75165
C          3.02533       -3.47038        0.20230
H          5.02678        1.86223        0.08554
H          4.31074        2.21322       -1.50427
H          5.37908       -1.16645       -0.66420
H          4.92541       -0.23369       -2.09296
H          4.36684       -1.90539       -1.91705
H         -0.90800        0.31746        1.04428
H          0.22668       -2.86904        0.11768
H         -0.15651       -2.02356        1.61258
H         -1.33387       -1.29697       -1.15836
H         -3.59398       -1.08987       -1.35351
H         -4.63664       -1.55294       -0.01247
H         -4.30944        0.77156        0.98608
H         -3.29758        1.19060       -0.40549
H         -6.40446        0.03111        0.41539
H         -3.44243       -2.50128        2.11003
H         -3.38703       -0.76961        2.43407
H         -1.91677       -1.73731        2.57019
H          2.49513       -3.47750        1.16413
H          4.04899       -3.10953        0.36452
H          3.05801       -4.48323       -0.20406
