34
astex_1of1_00.log	Energy: -550400.3068763
O          2.52982        2.09813       -0.69785
C          3.31049        1.51854        0.31825
C          2.97964        0.04239        0.57310
C          2.89419       -0.74971       -0.75787
O          3.30041       -2.10800       -0.61211
C          1.40949       -0.75090       -1.14464
C          0.65578       -0.61647        0.16954
N         -0.71843       -0.16963        0.12458
C         -1.00663        1.18009        0.07346
O         -0.16649        2.06811        0.10915
N         -2.35055        1.47097       -0.00831
C         -3.42857        0.58237       -0.08796
O         -4.56810        0.99635       -0.16841
C         -3.03512       -0.82810       -0.06430
C         -1.72722       -1.11821        0.03718
C         -4.12193       -1.85512       -0.15837
C          1.61470       -0.13919        1.22158
C          1.04897       -1.53095        1.29612
H          1.61279        2.16985       -0.37697
H          3.23048        2.07973        1.26391
H          4.35238        1.59603       -0.01558
H          3.77267       -0.38038        1.20760
H          3.49419       -0.26095       -1.53704
H          4.23209       -2.10778       -0.35893
H          1.15815       -1.65790       -1.70497
H          1.19903        0.12739       -1.76248
H         -2.57698        2.45735       -0.03827
H         -1.36441       -2.14162        0.06436
H         -4.84433       -1.72895        0.65438
H         -3.71247       -2.86840       -0.11121
H         -4.67672       -1.74422       -1.09566
H          1.28833        0.58393        1.96486
H          1.68920       -2.37614        1.06326
H          0.30055       -1.70231        2.06608
