22
astex_1n2j_06.log	Energy: -336741.3708008
O         -2.55159       -0.58139        0.22809
C         -1.71517        0.13711       -0.27487
O         -1.95157        1.41779       -0.58799
C         -0.31076       -0.33899       -0.59737
O         -0.35357       -1.73779       -0.74703
C          0.72342        0.08039        0.48559
C          0.75513        1.60045        0.67735
C          0.42016       -0.61761        1.81312
C          2.09680       -0.40043       -0.01628
O          2.50366        0.22249       -1.22032
H         -2.86890        1.60059       -0.32221
H          0.00726        0.10050       -1.54956
H         -1.12225       -2.03950       -0.23652
H         -0.14912        1.97107        1.16898
H          1.60951        1.87841        1.30808
H          0.84148        2.12896       -0.27891
H          0.45357       -1.70576        1.69756
H         -0.57169       -0.34681        2.19333
H          1.15689       -0.33365        2.57339
H          2.04525       -1.47121       -0.23020
H          2.84180       -0.24502        0.78105
H          2.76339        1.12809       -1.01225
