43
astex_1meh_28.log	Energy: -697115.3402204
C         -3.14946       -2.48867       -0.15994
O         -2.66097       -3.56066       -0.37981
C         -2.54517       -1.13753       -0.10934
C         -3.53380       -0.21912        0.19601
C         -4.82488       -0.97634        0.34204
O         -4.48812       -2.34129        0.10935
C         -3.28681        1.13804        0.33868
C         -4.36869        2.12160        0.69798
C         -1.95582        1.53110        0.13608
C         -0.92029        0.63333       -0.17259
C         -1.22218       -0.73429       -0.28907
O         -0.29437       -1.66436       -0.59040
C          0.49274        1.13024       -0.40699
C          1.51832        0.45337        0.46998
C          2.66996       -0.11847        0.09028
C          3.58720       -0.70837        1.14117
C          4.90682        0.06679        1.32718
C          5.86045        0.00037        0.14620
O          6.25288        0.95707       -0.46553
O          6.26743       -1.24278       -0.20809
C          3.15629       -0.19728       -1.33750
O         -1.63890        2.86501        0.26963
C         -1.86379        3.62118       -0.91115
H         -5.25823       -0.88514        1.34525
H         -5.58059       -0.66968       -0.39031
H         -5.06595        1.68954        1.42464
H         -3.93764        3.02467        1.13707
H         -4.95792        2.41963       -0.17888
H          0.58947       -1.29581       -0.42852
H          0.51258        2.20377       -0.19291
H          0.75384        1.01715       -1.46642
H          1.27324        0.45598        1.53367
H          3.07031       -0.72680        2.10630
H          3.79909       -1.75865        0.88865
H          4.69960        1.12363        1.51005
H          5.43016       -0.32745        2.20868
H          5.89848       -1.90221        0.39586
H          3.67994       -1.14288       -1.51848
H          2.34403       -0.12147       -2.06521
H          3.87072        0.60608       -1.55172
H         -2.91608        3.57633       -1.21986
H         -1.59833        4.65396       -0.67678
H         -1.23584        3.25965       -1.73637
