22
astex_1n2j_18.log	Energy: -336736.6433835
O         -2.56391       -0.63433        0.61554
C         -1.87480        0.08882       -0.06111
O         -2.24354        1.35179       -0.31297
C         -0.55257       -0.40902       -0.65132
O         -0.55431       -1.80956       -0.58654
C          0.68555        0.18628        0.07245
C          0.66928       -0.21106        1.55065
C          0.75651        1.71086       -0.06465
C          1.92237       -0.42196       -0.62055
O          3.14116        0.02439       -0.05556
H         -1.58116        1.78726       -0.86928
H         -0.50946       -0.10711       -1.71186
H         -1.28729       -2.04268        0.01030
H         -0.20073        0.20343        2.07263
H          1.56364        0.17050        2.05471
H          0.64018       -1.30052        1.65961
H          1.74819        2.04845        0.24947
H          0.63102        2.02988       -1.11083
H          0.01501        2.22250        0.55893
H          1.94078       -0.10385       -1.67085
H          1.84690       -1.51597       -0.60386
H          3.31967       -0.51377        0.72435
