46
omegacsd_CDBMPI10_05.log	Energy: -649539.3859902
O          2.54691        2.46468       -0.08169
C          2.47788        1.24465       -0.15533
N          1.26835        0.60251       -0.26953
C          0.07345        1.46642       -0.24939
C         -1.09845        0.71352       -0.87954
N         -1.26842       -0.60264       -0.26944
C         -0.07351       -1.46655       -0.24954
C          1.09830       -0.71357       -0.87977
C          0.23412       -1.93110        1.17213
C         -2.47795       -1.24474       -0.15513
O         -2.54706       -2.46478       -0.08164
C         -3.73429       -0.42059       -0.07157
C         -3.85173        0.67808        0.78160
C         -5.06591        1.34746        0.89650
C         -6.16592        0.92766        0.15404
C         -6.05585       -0.17609       -0.68806
C         -4.84821       -0.85694       -0.78863
C         -0.23401        1.93082        1.17237
C          3.73428        0.42058       -0.07163
C          3.85191       -0.67781        0.78187
C          5.06617       -1.34705        0.89683
C          6.16605       -0.92739        0.15411
C          6.05580        0.17611       -0.68830
C          4.84809        0.85683       -0.78893
H          0.28449        2.34933       -0.86497
H         -0.93896        0.60913       -1.96221
H         -2.00831        1.29921       -0.75170
H         -0.28463       -2.34940       -0.86519
H          2.00817       -1.29929       -0.75217
H          0.93863       -0.60904       -1.96240
H         -0.64101       -2.42463        1.60084
H          1.05964       -2.65257        1.16404
H          0.51513       -1.08449        1.80836
H         -2.99644        0.99672        1.37376
H         -5.15403        2.19426        1.57218
H         -7.11319        1.45370        0.24066
H         -6.91694       -0.51434       -1.25848
H         -4.75690       -1.74096       -1.41364
H         -0.51488        1.08414        1.80856
H          0.64117        2.42435        1.60100
H         -1.05956        2.65225        1.16447
H          2.99674       -0.99632        1.37426
H          5.15444       -2.19364        1.57275
H          7.11338       -1.45332        0.24078
H          6.91679        0.51427       -1.25891
H          4.75662        1.74066       -1.41418
