24
omegapdb_1gs5_12.log	Energy: -441842.1868622
C          0.77225        0.65631       -0.54958
C          0.62949        2.02490        0.08458
O          0.99191        2.31053        1.20363
O          0.01887        2.89516       -0.73010
C         -0.60428        0.04282       -0.85550
C         -1.45131       -0.15633        0.39429
C         -2.79483       -0.78959        0.07767
O         -3.18489       -1.04314       -1.02895
O         -3.57266       -1.05619        1.15360
N          1.56666       -0.15691        0.34424
C          2.25157       -1.23807       -0.13195
O          2.11800       -1.63020       -1.27989
C          3.18737       -1.90530        0.85434
H          1.30297        0.76905       -1.50326
H         -0.04412        3.73497       -0.24510
H         -0.43152       -0.91826       -1.34679
H         -1.13483        0.67901       -1.56972
H         -1.64231        0.80023        0.90383
H         -0.91800       -0.79013        1.11555
H         -3.11404       -0.80205        1.96627
H          1.80148        0.25588        1.23690
H          4.21883       -1.64501        0.59680
H          3.08461       -2.98781        0.75442
H          2.99899       -1.61501        1.89192
