61
omegapdb_1v2k_16.log	Energy: -1425428.7202922
N         -9.70123        1.93122       -0.16507
C         -8.66301        2.23230       -0.95094
C         -7.52548        1.45795       -1.10226
C         -7.41041        0.24674       -0.39090
C         -8.50133       -0.07602        0.43854
C         -9.58688        0.78556        0.50668
N         -6.30032       -0.56530       -0.46122
C         -6.22973       -1.77034        0.35723
C         -4.85025       -2.42540        0.25077
C         -3.75550       -1.35854        0.25723
C         -3.90460       -0.44089       -0.98553
C         -5.33191       -0.50927       -1.54239
C         -2.37910       -2.01716        0.30368
O         -2.24533       -3.21618        0.09646
N         -1.29496       -1.22047        0.55848
C          0.02699       -1.84035        0.52435
C          1.06131       -0.85265        0.00873
N          1.13152        0.31481        0.90642
C         -0.10759        0.60534        1.64368
C         -1.33967        0.21300        0.83656
S          1.93995        1.63099        0.26017
O          1.74389        2.73186        1.19050
O          1.61373        1.79670       -1.15172
C          3.62339        1.08122        0.35977
C          4.31693        0.84041       -0.79319
C          5.67051        0.41595       -0.72348
C          6.27759        0.25222        0.54776
C          5.51835        0.52219        1.72259
C          4.21824        0.93045        1.63785
C          7.62893       -0.17399        0.61998
C          8.32524       -0.42035       -0.53146
C          7.73238       -0.26006       -1.80652
C          6.43071        0.15062       -1.89317
Cl         9.98017       -0.94272       -0.44902
H         -8.74079        3.16957       -1.50143
H         -6.73700        1.81811       -1.75380
H         -8.52325       -0.99212        1.01723
H        -10.42768        0.52457        1.14931
H         -6.41479       -1.48870        1.40244
H         -7.01190       -2.49303        0.07334
H         -4.71470       -3.12079        1.08373
H         -4.76114       -3.02824       -0.65839
H         -3.89281       -0.74759        1.15962
H         -3.20343       -0.74338       -1.77373
H         -3.66713        0.59517       -0.72184
H         -5.44454       -1.39603       -2.18350
H         -5.52827        0.35194       -2.17946
H          0.31061       -2.20913        1.51931
H         -0.02562       -2.70607       -0.13809
H          2.04494       -1.33405       -0.02720
H          0.79491       -0.54230       -1.01012
H         -0.08969        0.04786        2.58716
H         -0.13032        1.66881        1.88824
H         -1.36502        0.80047       -0.09224
H         -2.23648        0.45800        1.41366
H          3.83248        0.98002       -1.75630
H          5.99371        0.40189        2.69297
H          3.63575        1.14759        2.52814
H          8.10447       -0.30191        1.58832
H          8.31901       -0.46468       -2.69643
H          5.96257        0.27983       -2.86599
