39
omegacsd_FIBREN_11.log	Energy: -667547.1215637
N         -2.44014       -1.13792        1.78066
C         -1.16285       -0.85518        2.04566
N         -0.27424       -0.25529        1.23049
C         -0.65601        0.11834        0.00481
C         -1.98726       -0.13130       -0.37836
C         -2.77717       -0.74823        0.56075
O         -4.01131       -0.90288        0.00636
C         -3.88771       -0.36265       -1.24890
N         -2.72108        0.10762       -1.53654
C         -5.10335       -0.39163       -2.10133
N          0.20452        0.73569       -0.83921
C          1.64348        0.91736       -0.63824
C          1.92859        1.82678        0.56280
C          1.28439        3.18609        0.43651
O          0.74890        3.79275        1.33039
O          1.39690        3.69963       -0.81030
C          2.42036       -0.39422       -0.61536
C          2.89558       -0.90714       -1.82384
C          3.60551       -2.10246       -1.86634
C          3.85598       -2.80133       -0.68973
C          3.39058       -2.29743        0.52099
C          2.67644       -1.10362        0.55964
C         -0.63780       -1.25070        3.39675
H         -5.42764       -1.42259       -2.27368
H         -4.87779        0.08166       -3.05771
H         -5.92601        0.14226       -1.61586
H         -0.16036        0.91541       -1.76275
H          1.96684        1.46242       -1.53009
H          3.01268        1.97390        0.64557
H          1.56664        1.38552        1.49163
H          0.96878        4.57092       -0.77472
H          2.71041       -0.36009       -2.74738
H          3.96882       -2.48367       -2.81737
H          4.41302       -3.73445       -0.71591
H          3.58230       -2.83771        1.44475
H          2.29757       -0.73255        1.50666
H         -1.43457       -1.69088        3.99822
H          0.17475       -1.97644        3.28275
H         -0.22725       -0.37644        3.91153
