41
omegacsd_CEJTIU_13.log	Energy: -611026.2503039
C          6.70315       -0.53158       -0.23880
N          5.84215        0.55750        0.17103
C          6.34441        1.90037       -0.02356
C          4.46234        0.35920        0.11297
C          3.90650       -0.92332       -0.02400
C          2.53399       -1.13629       -0.04436
C          1.65517       -0.05848        0.05941
C          2.19156        1.22268        0.17866
C          3.56198        1.43410        0.20292
N          0.24433       -0.18048        0.03941
C         -0.49033       -1.33749       -0.06965
O         -0.03641       -2.45599       -0.13061
N         -1.87233       -1.05130       -0.13469
C         -2.89614       -1.96557        0.07475
O         -2.73663       -3.09487        0.46882
C         -4.29189       -1.43050       -0.27209
C         -4.48396        0.06225       -0.15309
C         -4.44547        0.88578       -1.28069
C         -4.58697        2.26697       -1.16090
C         -4.76920        2.84193        0.09196
C         -4.80844        2.03035        1.22418
C         -4.66497        0.65326        1.10144
H          7.74479       -0.21393       -0.15261
H          6.52291       -0.85746       -1.27624
H          6.57304       -1.39823        0.41831
H          6.04877        2.33623       -0.99221
H          7.43542        1.88430        0.02836
H          5.99234        2.56757        0.77119
H          4.54930       -1.79220       -0.11304
H          2.14235       -2.14053       -0.14006
H          1.52701        2.08338        0.24823
H          3.92310        2.45265        0.29357
H         -0.25727        0.66878        0.25227
H         -2.15413       -0.11615       -0.39494
H         -4.49888       -1.75922       -1.29826
H         -4.98332       -1.97464        0.37703
H         -4.31373        0.43890       -2.26485
H         -4.56160        2.89128       -2.05042
H         -4.88523        3.91820        0.18814
H         -4.95411        2.47292        2.20623
H         -4.69577        0.02305        1.98849
