41
omegacsd_CEJTIU_14.log	Energy: -611026.3895633
C         -6.08554       -1.24854        1.31899
N         -5.60611       -0.92061       -0.01360
C         -5.99886       -1.90862       -0.99425
C         -4.29649       -0.41038       -0.10989
C         -3.88818        0.65166        0.71180
C         -2.62177        1.20778        0.62711
C         -1.70758        0.71401       -0.30750
C         -2.09850       -0.33227       -1.13682
C         -3.36776       -0.89137       -1.04019
N         -0.38886        1.21020       -0.46087
C          0.20269        2.23117        0.22478
O         -0.35195        2.96565        1.01782
N          1.56312        2.44739       -0.09509
C          2.65409        1.60489       -0.30079
O          3.75888        2.09640       -0.38341
C          2.40679        0.10420       -0.42743
C          3.62061       -0.73014       -0.09303
C          4.77854       -0.66638       -0.87086
C          5.87746       -1.45865       -0.56195
C          5.83414       -2.32535        0.52796
C          4.68557       -2.39356        1.30788
C          3.58549       -1.59873        0.99624
H         -5.63400       -2.17637        1.71057
H         -5.87180       -0.44358        2.02342
H         -7.17176       -1.38156        1.28652
H         -5.47698       -2.87549       -0.87681
H         -7.07313       -2.09200       -0.89596
H         -5.81381       -1.53253       -2.00470
H         -4.58879        1.08114        1.42186
H         -2.34384        2.03545        1.26632
H         -1.39951       -0.73427       -1.86945
H         -3.61788       -1.71669       -1.69819
H          0.12526        0.82800       -1.23939
H          1.85912        3.37979        0.16983
H          2.10646       -0.08726       -1.46902
H          1.56333       -0.19378        0.20206
H          4.82181        0.02050       -1.71145
H          6.77407       -1.39792       -1.17357
H          6.69495       -2.94440        0.76764
H          4.64206       -3.06639        2.16054
H          2.68760       -1.65629        1.60908
