39
omegacsd_GALSEM_13.log	Energy: -1046257.0350939
S         -2.90880        0.58232        0.45369
O         -2.57461       -0.19651        1.64419
O         -4.19456        1.25046        0.38318
N         -2.70444       -0.44599       -0.86612
C         -3.39620       -1.65592       -1.10224
O         -3.38280       -2.10259       -2.22535
C         -4.07739       -2.31382        0.07461
C         -4.74577       -3.62227       -0.32408
C         -1.63097        1.74497        0.12757
C         -0.26522        1.44639        0.35709
N          0.12383        0.24701        0.88375
C          1.44837       -0.21212        1.04891
C          2.37810       -0.13991        0.01123
C          3.66226       -0.63383        0.20430
C          4.02840       -1.22696        1.40907
C          3.09015       -1.32172        2.42973
C          1.80934       -0.81012        2.25719
C          4.65060       -0.59652       -0.93040
F          5.90200       -0.38400       -0.48642
F          4.66498       -1.75824       -1.60784
F          4.36141        0.37525       -1.81449
C          0.63328        2.47659        0.02500
C          0.14753        3.66946       -0.47689
N         -1.14584        3.95646       -0.68130
C         -2.00413        2.99542       -0.36821
H         -2.45421        0.03055       -1.72792
H         -3.33567       -2.45990        0.86741
H         -4.80910       -1.60558        0.48584
H         -5.23182       -4.07535        0.54475
H         -5.49990       -3.45852       -1.09830
H         -4.01386       -4.33050       -0.72169
H         -0.60203       -0.28076        1.35736
H          2.09881        0.28876       -0.94608
H          5.03606       -1.60770        1.54381
H          3.36049       -1.78439        3.37452
H          1.08129       -0.86444        3.06297
H          1.69764        2.35289        0.18739
H          0.85030        4.46283       -0.72571
H         -3.06193        3.20698       -0.51243
