35
omegacsd_DIAVER_05.log	Energy: -548603.6321745
N         -4.24853        0.41913       -1.03373
C         -4.39961        0.41653        0.29436
N         -3.52238       -0.02415        1.20635
C         -2.37511       -0.51194        0.73753
C         -2.08584       -0.57151       -0.64681
C         -3.08556       -0.07992       -1.46273
C         -0.80988       -1.17033       -1.17700
C          0.46158       -0.44396       -0.76409
C          1.60112       -1.18230       -0.40304
C          2.78555       -0.55232       -0.04831
C          2.84969        0.86018       -0.04358
C          1.72279        1.58832       -0.39379
C          0.53565        0.93907       -0.74928
O          4.04496        1.38961        0.32199
C          4.14586        2.79536        0.35180
O          3.92817       -1.18821        0.31397
C          3.91241       -2.59766        0.32189
N         -1.49303       -1.00315        1.66337
N         -5.56043        0.95234        0.78190
H         -2.94772       -0.09337       -2.54581
H         -0.73356       -2.21854       -0.85466
H         -0.87025       -1.19630       -2.27336
H          1.54515       -2.26747       -0.41211
H          1.75105        2.67309       -0.39190
H         -0.33862        1.53033       -1.01099
H          5.16641        3.01687        0.66789
H          3.97034        3.23399       -0.63945
H          3.43991        3.23445        1.06936
H          3.69816       -3.00458       -0.67517
H          3.17483       -2.98845        1.03567
H          4.91183       -2.90782        0.63079
H         -1.70647       -0.73970        2.61487
H         -0.51180       -0.98474        1.42159
H         -5.80155        0.70996        1.72953
H         -6.31395        1.04460        0.11927
