24
omegapdb_1gs5_03.log	Energy: -441848.4336499
C          0.78478        0.64810       -0.55264
C          0.66478        2.02438        0.07011
O          1.07646        2.32743        1.16680
O          0.01889        2.88413       -0.72996
C         -0.59864        0.04682       -0.85010
C         -1.45167       -0.11234        0.40103
C         -2.78262       -0.75465        0.10342
O         -3.18232       -1.08542       -0.98631
O         -3.51364       -0.92381        1.22464
N          1.57426       -0.16667        0.34342
C          2.24010       -1.26229       -0.12339
O          2.10102       -1.66233       -1.26848
C          3.16557       -1.93588        0.86853
H          1.31459        0.74773       -1.50862
H         -0.02164        3.72954       -0.25245
H         -1.11436        0.67645       -1.58135
H         -0.43432       -0.92549       -1.32217
H         -1.65529        0.85211        0.88597
H         -0.93891       -0.72394        1.15279
H         -4.34610       -1.33608        0.94049
H          1.81092        0.24608        1.23555
H          3.05222       -3.01755        0.77149
H          4.20067       -1.68635        0.61472
H          2.97541       -1.64055        1.90432
