61
omegapdb_1v2k_08.log	Energy: -1425430.4232148
N        -10.11726        0.49178        0.29441
C         -9.56063       -0.61326        0.78730
C         -8.25296       -1.02077        0.55083
C         -7.42643       -0.24008       -0.27082
C         -8.00975        0.92761       -0.79478
C         -9.32355        1.23399       -0.48471
N         -6.11898       -0.60376       -0.59537
C         -5.09517        0.43792       -0.55847
C         -3.90003        0.05903       -1.42706
C         -3.28506       -1.27585       -0.97080
C         -4.38996       -2.33497       -0.89250
C         -5.62584       -1.88925       -0.10989
C         -2.56015       -1.12585        0.36800
O         -3.00477       -1.61246        1.40103
N         -1.40096       -0.39633        0.39753
C         -0.66493        0.11068       -0.75513
C          0.83149       -0.03791       -0.50065
N          1.24814        0.72635        0.68568
C          0.18305        0.96334        1.68088
C         -0.75851       -0.22856        1.70132
S          2.20519        2.06309        0.38424
O          1.73291        2.78997       -0.79007
O          2.33677        2.74255        1.66191
C          3.75184        1.30581       -0.05998
C          4.39665        0.52196        0.86013
C          5.64413       -0.06307        0.53533
C          6.20903        0.18048       -0.74447
C          5.51147        1.00727       -1.66532
C          4.30562        1.56497       -1.33511
C          7.45956       -0.40893       -1.07255
C          8.09898       -1.19717       -0.15779
C          7.54763       -1.44694        1.12407
C          6.34635       -0.88843        1.45657
Cl         9.62745       -1.92143       -0.55373
H        -10.19717       -1.22199        1.42917
H         -7.89205       -1.92438        1.02808
H         -7.46028        1.57838       -1.46726
H         -9.77305        2.13571       -0.89945
H         -5.51655        1.37810       -0.91636
H         -4.76422        0.60659        0.48188
H         -4.23933       -0.04500       -2.46464
H         -3.16284        0.86998       -1.40099
H         -2.55811       -1.60523       -1.72396
H         -4.00170       -3.25137       -0.43746
H         -4.69608       -2.57319       -1.91880
H         -6.40829       -2.63755       -0.26452
H         -5.39019       -1.85060        0.96328
H         -0.89002        1.16924       -0.94632
H         -0.93173       -0.45242       -1.65203
H          1.38279        0.31189       -1.37756
H          1.07948       -1.09456       -0.34721
H         -0.38667        1.87553        1.45504
H          0.64386        1.09430        2.66155
H         -0.21668       -1.14100        1.98508
H         -1.53671       -0.07370        2.45161
H          3.95410        0.34404        1.83732
H          5.95263        1.19496       -2.64116
H          3.76332        2.20467       -2.02452
H          7.90143       -0.22914       -2.04849
H          8.08950       -2.07761        1.82159
H          5.91206       -1.06993        2.43671
