24
omegapdb_1gs5_09.log	Energy: -441845.5167719
C          0.99623       -0.60501       -0.54892
C          2.23494       -0.43279        0.31349
O          2.28495       -0.65564        1.49997
O          3.28658       -0.00376       -0.39747
C          0.65253        0.68853       -1.31094
C          0.21696        1.85715       -0.42733
C         -1.12742        1.78039        0.28888
O         -1.30836        2.30625        1.35603
O         -2.15844        1.19439       -0.35415
N         -0.05368       -1.08746        0.32139
C         -1.24257       -1.52288       -0.16495
O         -1.51515       -1.43027       -1.36049
C         -2.22948       -2.03698        0.85310
H          1.22846       -1.37123       -1.30147
H          4.02907        0.07416        0.22485
H          1.54499        0.98533       -1.87075
H         -0.10699        0.43906       -2.05675
H          0.16558        2.76052       -1.04920
H          0.95811        2.06528        0.35102
H         -1.87266        0.63257       -1.09474
H          0.18318       -1.18400        1.30032
H         -2.81211       -2.84293        0.40354
H         -2.91124       -1.21590        1.09944
H         -1.75444       -2.38888        1.77284
