66
omegapdb_1z1r_12.log	Energy: -1302678.9632066
C         -0.04361       -1.26231       -0.22301
C         -0.74541       -2.21535       -1.21837
C         -2.21761       -2.34531       -0.91085
C         -2.66167       -2.72222        0.35993
C         -3.99905       -2.61162        0.71924
C         -4.92256       -2.12652       -0.20656
C         -4.51874       -1.86058       -1.51089
C         -3.17233       -1.95435       -1.84922
O         -6.22752       -1.88673        0.14331
C         -6.41126       -0.88256        1.14461
C         -6.32983        0.54280        0.59794
C         -4.93470        1.07704        0.25680
C         -4.06574        1.28886        1.48389
O         -4.47764        1.15351        2.62305
N         -2.75993        1.68031        1.26975
C         -2.10402        1.96926        0.00876
C         -1.40359        0.77180       -0.65750
O         -1.25950        0.76837       -1.87277
N         -0.88026       -0.13648        0.19238
C         -1.05113        3.07624        0.24393
C         -0.06979        3.24333       -0.91261
O          1.04603        2.74842       -0.87639
N         -0.50131        3.99981       -1.95360
C          1.27832       -0.72371       -0.78069
O          2.02434       -1.82997       -1.24873
C          2.08065        0.04115        0.26811
N          3.16682        0.74279       -0.42432
S          4.49634        1.16419        0.49337
O          4.12277        1.42346        1.87808
O          5.19943        2.16779       -0.28865
C          5.42748       -0.35143        0.47705
C          6.01671       -0.76980       -0.71462
C          6.74405       -1.95248       -0.72644
C          6.88005       -2.69979        0.44376
C          6.29549       -2.26556        1.62836
C          5.56274       -1.08104        1.65112
H          0.17522       -1.81745        0.69789
H         -0.61841       -1.82389       -2.23165
H         -0.22522       -3.17790       -1.17864
H         -1.94299       -3.07315        1.09995
H         -4.32796       -2.87329        1.72160
H         -5.25873       -1.51466       -2.22776
H         -2.84854       -1.66104       -2.84525
H         -5.70038       -1.01800        1.96745
H         -7.41781       -1.05769        1.53439
H         -6.95718        0.59706       -0.29961
H         -6.77508        1.20530        1.34871
H         -5.04368        2.05242       -0.23939
H         -4.41406        0.43266       -0.45935
H         -2.28358        1.93223        2.12693
H         -2.83969        2.31545       -0.72388
H         -1.23309       -0.12292        1.13776
H         -1.56414        4.01947        0.46271
H         -0.44003        2.80922        1.11226
H          0.05677        3.96858       -2.79474
H         -1.48143        4.20783       -2.06487
H          1.03374       -0.04185       -1.60820
H          2.88573       -1.47589       -1.51489
H          2.51343       -0.68478        0.96645
H          1.45750        0.74419        0.82841
H          2.81412        1.59178       -0.87339
H          5.91094       -0.16506       -1.61128
H          7.21082       -2.29176       -1.64702
H          7.45009       -3.62513        0.42940
H          6.41039       -2.84626        2.53941
H          5.10453       -0.71114        2.56349
