39
omegacsd_GALSEM_06.log	Energy: -1046257.1028461
S          2.49127        0.11316        1.49867
O          3.42679        0.98383        2.16984
O          1.62424       -0.78119        2.26563
N          3.32650       -0.98175        0.51836
C          4.33041       -0.61294       -0.37676
O          4.52839        0.54438       -0.66691
C          5.10704       -1.78560       -0.94618
C          6.09271       -1.34608       -2.01971
C          1.52688        1.05589        0.37167
C          0.27713        0.61562       -0.12963
N         -0.30788       -0.54943        0.28214
C         -1.63367       -0.96630        0.00287
C         -2.72023       -0.09675        0.10228
C         -4.00307       -0.56772       -0.15016
C         -4.22485       -1.90376       -0.47163
C         -3.14343       -2.77308       -0.54291
C         -1.85342       -2.30604       -0.31760
C         -5.17769        0.36268       -0.00743
F         -4.82531        1.64583       -0.20126
F         -5.72538        0.28196        1.21853
F         -6.14797        0.06859       -0.89157
C         -0.29728        1.45051       -1.10731
C          0.33971        2.62174       -1.46704
N          1.49874        3.06139       -0.95856
C          2.07203        2.26668       -0.06620
H          3.23515       -1.94142        0.82992
H          5.62812       -2.27865       -0.11442
H          4.39250       -2.51983       -1.34086
H          6.65037       -2.20690       -2.39967
H          5.57238       -0.87166       -2.85603
H          6.80234       -0.61817       -1.61874
H          0.16116       -1.03452        1.03994
H         -2.56623        0.94155        0.37894
H         -5.23329       -2.25479       -0.66761
H         -3.30280       -3.81856       -0.79076
H         -1.00162       -2.97672       -0.39478
H         -1.23140        1.17755       -1.58421
H         -0.11649        3.26121       -2.22124
H          3.02690        2.58616        0.34196
