34
omegapdb_2f7p_11.log	Energy: -719060.5197752
C          0.67736       -0.63564        0.18632
N         -0.03839       -1.39916       -0.83549
C         -1.19271       -0.77408       -1.48195
C         -2.36867       -0.43025       -0.58114
C         -2.81921       -1.32334        0.39342
C         -3.92358       -1.02050        1.18284
C         -4.59924        0.18345        1.00424
C         -4.16157        1.07912        0.03438
C         -3.05305        0.77328       -0.74962
C          1.94660       -1.46097        0.57928
O          2.37614       -2.25543       -0.51055
C          3.05601       -0.41615        0.91515
O          4.09848       -0.45937       -0.03391
C          2.35838        0.94864        0.78595
O          3.24287        1.98061        0.45785
C          1.27022        0.70083       -0.27287
S          0.12697        2.11009       -0.37046
H          0.06820       -0.45515        1.08635
H         -0.34134       -2.27351       -0.41067
H         -1.52603       -1.47457       -2.25803
H         -0.85211        0.12513       -2.00447
H         -2.31053       -2.27557        0.54141
H         -4.25931       -1.72835        1.93660
H         -5.46186        0.42226        1.62088
H         -4.67838        2.02463       -0.10831
H         -2.70525        1.48445       -1.49595
H          1.74123       -2.11551        1.43506
H          1.67403       -2.15219       -1.18727
H          3.47740       -0.56544        1.91604
H          3.87146       -1.20261       -0.62476
H          1.86638        1.21942        1.72891
H          3.91723        1.55403       -0.09912
H          1.75659        0.55483       -1.24598
H          1.11627        3.01818       -0.33787
