39
omegacsd_GALSEM_01.log	Energy: -1046260.9494980
S         -3.08874       -0.12361        1.02520
O         -2.22324       -0.17311        2.18960
O         -4.52369        0.03805        1.15902
N         -2.97543       -1.60922        0.21250
C         -1.78667       -2.23003       -0.12365
O         -0.71589       -1.67681        0.03217
C         -1.94593       -3.62431       -0.69808
C         -0.62816       -4.18046       -1.22009
C         -2.46312        1.06373       -0.11061
C         -1.11616        1.50694       -0.13495
N         -0.18575        1.11403        0.77676
C          1.21459        1.29529        0.61101
C          2.01087        0.18757        0.32674
C          3.38755        0.34773        0.21575
C          3.97392        1.60122        0.36735
C          3.17223        2.70266        0.64470
C          1.79600        2.55108        0.77897
C          4.24496       -0.83653       -0.13867
F          3.70357       -1.99122        0.28581
F          5.47335       -0.73923        0.40236
F          4.41162       -0.94473       -1.47080
C         -0.81337        2.41161       -1.17587
C         -1.80043        2.81730       -2.04695
N         -3.08468        2.42492       -2.00147
C         -3.37978        1.56201       -1.04298
H         -3.86912       -2.06956        0.08856
H         -2.70403       -3.59296       -1.49104
H         -2.35490       -4.26555        0.09402
H         -0.23173       -3.55477       -2.02436
H         -0.77023       -5.19340       -1.60711
H          0.12133       -4.21158       -0.42548
H         -0.45794        0.33684        1.36685
H          1.54379       -0.78496        0.19440
H          5.05055        1.71051        0.27988
H          3.62359        3.68170        0.77791
H          1.16413        3.39887        1.03087
H          0.19757        2.78489       -1.29328
H         -1.54990        3.51419       -2.84517
H         -4.41544        1.23217       -0.98221
