57
omegacsd_SPIRIL_06.log	Energy: -797199.4681936
C          2.60466       -0.57211        1.50488
C          3.27395       -0.97136        0.17177
C          3.47906       -2.49076        0.16397
O          2.61098       -3.33789        0.25690
N          4.80856       -2.72449        0.02942
C          5.62404       -1.54294       -0.05946
N          4.65114       -0.47750        0.07071
C          5.06865        0.84522       -0.01602
C          4.18076        1.93693        0.05376
C          4.65165        3.24025       -0.03468
C          6.00623        3.51382       -0.19349
C          6.89005        2.44444       -0.26122
C          6.43745        1.13311       -0.17497
C          2.41597       -0.59133       -1.05560
C          0.92785       -0.85955       -0.84825
N          0.45629       -0.21272        0.37354
C         -0.99442       -0.26614        0.49285
C         -1.71456        0.69242       -0.46403
C         -3.19022        0.75199       -0.17205
C         -4.15266        0.01602       -0.74373
C         -5.57378        0.17020       -0.31706
C         -6.61800        0.06655       -1.24365
C         -7.94534        0.22907       -0.86370
C         -8.22901        0.48733        0.46693
C         -7.22837        0.57993        1.42063
C         -5.90809        0.41516        1.02034
F         -9.51137        0.64092        0.84592
C         -3.88803       -0.98291       -1.84565
C          1.10228       -0.84068        1.52316
H          2.77321        0.49175        1.68808
H          3.09275       -1.11499        2.32357
H          5.17481       -3.66289       -0.00256
H          6.15892       -1.49399       -1.02213
H          6.37345       -1.51049        0.74705
H          3.11582        1.78139        0.17628
H          3.93449        4.05574        0.02198
H          6.36357        4.53706       -0.26283
H          7.95557        2.62335       -0.38493
H          7.16764        0.33221       -0.23100
H          2.77839       -1.14753       -1.92912
H          2.55409        0.46941       -1.27784
H          0.73643       -1.94710       -0.81858
H          0.38497       -0.45006       -1.70634
H         -1.25436        0.01823        1.52044
H         -1.38236       -1.29373        0.34620
H         -1.27054        1.68692       -0.34036
H         -1.54089        0.40131       -1.50510
H         -3.48476        1.46464        0.59899
H         -6.39617       -0.13173       -2.28901
H         -8.75606        0.15954       -1.58218
H         -7.49016        0.76363        2.45797
H         -5.11918        0.45595        1.76673
H         -4.22487       -0.60408       -2.81911
H         -2.82622       -1.22306       -1.93714
H         -4.42929       -1.91665       -1.65823
H          0.91135       -1.92767        1.54869
H          0.68132       -0.40723        2.43796
