41
omegacsd_CEJTIU_11.log	Energy: -611026.2502838
C         -6.34464       -1.90025       -0.02375
N         -5.84227       -0.55749        0.17123
C         -6.70317        0.53176       -0.23849
C         -4.46245       -0.35930        0.11305
C         -3.56214       -1.43435        0.20150
C         -2.19170       -1.22295        0.17721
C         -1.65529        0.05832        0.05944
C         -2.53407        1.13631       -0.04283
C         -3.90657        0.92337       -0.02249
N         -0.24443        0.18032        0.03959
C          0.49025        1.33725       -0.07007
O          0.03636        2.45573       -0.13176
N          1.87226        1.05104       -0.13478
C          2.89601        1.96546        0.07442
O          2.73638        3.09470        0.46862
C          4.29174        1.43060       -0.27279
C          4.48409       -0.06208       -0.15322
C          4.66511       -0.65262        1.10154
C          4.80878       -2.02964        1.22476
C          4.76974       -2.84163        0.09283
C          4.58751       -2.26714       -1.16025
C          4.44580       -0.88601       -1.28052
H         -5.99192       -2.56784        0.77039
H         -6.04975       -2.33564       -0.99285
H         -7.43562       -1.88426        0.02902
H         -6.52227        0.85825       -1.27562
H         -6.57360        1.39803        0.41923
H         -7.74482        0.21392       -0.15316
H         -3.92328       -2.45300        0.29095
H         -1.52717       -2.08376        0.24549
H         -2.14239        2.14064       -0.13745
H         -4.54938        1.79238       -0.11025
H          0.25716       -0.66877        0.25312
H          2.15412        0.11588       -0.39492
H          4.98331        1.97515        0.37584
H          4.49823        1.75887       -1.29920
H          4.69576       -0.02208        1.98836
H          4.95445       -2.47185        2.20698
H          4.88591       -3.91784        0.18942
H          4.56230       -2.89178       -2.04955
H          4.31407       -0.43951       -2.26485
