39
omegacsd_FIBREN_03.log	Energy: -667551.5031297
N         -3.26181        1.76896        0.37884
C         -2.07830        2.16886        0.85234
N         -0.95415        1.43722        0.95816
C         -0.96459        0.15785        0.56633
C         -2.16301       -0.36980        0.05052
C         -3.22605        0.50047        0.00098
O         -4.27913       -0.18235       -0.52749
C         -3.77935       -1.43809       -0.76846
N         -2.54166       -1.61202       -0.45101
C         -4.72544       -2.42146       -1.35464
N          0.15160       -0.59786        0.68973
C          1.43731       -0.02927        1.04138
C          2.30006       -1.08596        1.74836
C          2.60255       -2.29224        0.89257
O          1.86735       -2.76123        0.04995
O          3.78864       -2.84333        1.18917
C          2.18506        0.60064       -0.12963
C          2.01463        0.15794       -1.44032
C          2.74614        0.72981       -2.47789
C          3.65769        1.74755       -2.21695
C          3.83254        2.19600       -0.91053
C          3.09849        1.62530        0.12318
C         -1.97598        3.59230        1.32323
H         -5.57565       -2.58305       -0.68463
H         -5.11550       -2.05817       -2.31040
H         -4.20324       -3.36624       -1.51057
H          0.14939       -1.51932        0.26895
H          1.23514        0.76436        1.76693
H          3.24260       -0.64192        2.07942
H          1.77465       -1.44887        2.64089
H          3.87727       -3.62494        0.61774
H          1.30321       -0.63542       -1.65318
H          2.60002        0.37702       -3.49579
H          4.22539        2.19473       -3.02895
H          4.53566        2.99721       -0.69699
H          3.22767        1.98978        1.14176
H         -1.74374        3.61724        2.39300
H         -1.16040        4.10214        0.80148
H         -2.91566        4.11723        1.14437
