40
omegapdb_2byh_11.log	Energy: -1016185.0074455
O          7.64737        0.30638       -0.49164
C          6.73318        0.90333        0.04543
C          6.97794        2.21813        0.75655
C          5.34305        0.35354        0.01692
C          4.25723        0.99181        0.61677
C          2.97682        0.45316        0.56892
C          2.77055       -0.75955       -0.09618
C          3.85723       -1.40888       -0.70067
C          5.12301       -0.85857       -0.64393
N          1.51908       -1.38807       -0.19853
C          0.29689       -0.95652        0.27222
O          0.13886        0.11434        0.83823
C         -0.79588       -1.92907        0.03724
C         -0.64887       -3.33151       -0.09060
N         -1.80956       -3.94633       -0.21174
N         -2.70625       -2.95474       -0.17448
C         -2.17888       -1.71873       -0.01375
C         -3.03356       -0.51483        0.01299
C         -2.50960        0.74628       -0.29431
C         -3.28777        1.88902       -0.29129
Cl        -2.58595        3.42384       -0.67956
C         -4.64750        1.81351        0.02567
O         -5.37598        2.94972        0.02173
C         -5.19362        0.56889        0.32447
C         -4.40342       -0.57669        0.31470
O         -4.96053       -1.79402        0.59343
H          6.37845        3.02042        0.31237
H          8.03690        2.46696        0.67351
H          6.70212        2.14581        1.81451
H          4.39732        1.93632        1.13665
H          2.14125        0.95901        1.03233
H          3.69998       -2.35459       -1.21691
H          5.97009       -1.35368       -1.10958
H          1.50935       -2.23321       -0.75003
H          0.26113       -3.91952       -0.05418
H         -3.69193       -3.16832       -0.20269
H         -1.45548        0.84778       -0.51682
H         -6.28731        2.74898        0.26996
H         -6.25414        0.48907        0.56162
H         -5.88812       -1.67772        0.83434
