45
omegacsd_SEYMIS_05.log	Energy: -753207.7381107
O         -4.37335        2.63768       -0.17605
N         -4.69485        1.30493       -0.04284
C         -3.55726        0.66675        0.06457
C         -2.44625        1.57623        0.00672
C         -0.97092        1.37262        0.00592
O         -0.19667        2.28702        0.25570
N         -0.55885        0.11657       -0.32717
C          0.77428       -0.32726       -0.35716
C          1.12982       -1.65018       -0.54978
N          2.48639       -1.74561       -0.53463
C          3.22028       -2.98875       -0.70852
C          3.00719       -0.48997       -0.32882
C          1.96445        0.41370       -0.21538
C          4.44934       -0.24941       -0.25658
O          5.30716       -1.10488       -0.36877
O          4.71442        1.05154       -0.05383
C          6.10342        1.40544        0.03918
C          6.64805        1.13826        1.42967
C         -3.04670        2.79588       -0.13793
C         -2.53477        4.18473       -0.26814
C         -3.59143       -0.80558        0.23365
C         -2.81224       -1.43785        1.20824
C         -2.87583       -2.81821        1.36844
C         -3.72047       -3.57680        0.56240
C         -4.50510       -2.95119       -0.40261
C         -4.44198       -1.57214       -0.56759
H         -1.26469       -0.57364       -0.53790
H          0.50994       -2.52617       -0.69429
H          3.88263       -2.92727       -1.57342
H          2.49216       -3.78924       -0.85710
H          3.82893       -3.20276        0.17165
H          2.05166        1.47476       -0.04580
H          6.66284        0.84927       -0.71769
H          6.12746        2.47062       -0.20261
H          7.68309        1.48930        1.50017
H          6.63109        0.06641        1.64427
H          6.05286        1.66292        2.18332
H         -1.44625        4.16297       -0.31872
H         -2.95153        4.65953       -1.16143
H         -2.83672        4.77684        0.60194
H         -2.16354       -0.84501        1.84869
H         -2.27128       -3.29940        2.13268
H         -3.77106       -4.65498        0.69024
H         -5.16849       -3.53949       -1.03091
H         -5.05363       -1.07435       -1.31474
