25
omegapdb_1m5f_01.log	Energy: -499678.8652262
O          0.76938       -2.34069       -0.46782
C          1.96038       -1.72649       -0.24928
O          2.99770       -2.33056       -0.21300
C          1.80791       -0.25687       -0.06699
N          2.86654        0.39790        0.34839
O          2.48883        1.70135        0.40673
C          1.20542        1.83150        0.01803
C          0.69358        0.61016       -0.30048
C         -0.70166        0.30898       -0.76080
C         -1.68896        0.12970        0.40262
N         -1.40228       -0.98108        1.31098
C         -3.11953       -0.01311       -0.15122
O         -3.52027        0.63364       -1.08713
O         -3.87040       -0.88830        0.51386
C          0.64535        3.20966        0.01048
H          0.98000       -3.28072       -0.60277
H         -1.07885        1.11740       -1.39413
H         -0.70653       -0.59524       -1.37723
H         -1.70073        1.05287        0.99767
H         -0.82432       -0.68414        2.08932
H         -0.89340       -1.71482        0.82309
H         -3.26813       -1.27591        1.19141
H          0.57290        3.60983        1.02695
H         -0.35289        3.20809       -0.43447
H          1.28521        3.88025       -0.57067
