36
omegapdb_1qxw_09.log	Energy: -410434.2864575
C         -4.38258       -1.19501        0.21298
C         -3.00571       -1.79392        0.27984
C         -3.26186       -0.55268       -0.53946
N         -2.77949        0.71305       -0.04682
C         -1.54538        1.19817       -0.66629
C         -0.31141        0.51758       -0.03688
C          0.95964        1.36382       -0.23666
N          0.73191        2.63631        0.44972
C          2.23047        0.61847        0.22088
C          2.90676       -0.22403       -0.86244
C          4.22380       -0.86152       -0.41145
C          4.05655       -1.90316        0.69436
O         -0.06857       -0.73544       -0.63924
O         -0.53367        0.36649        1.34337
H         -5.14934       -1.71876       -0.34952
H         -4.73890       -0.67586        1.09822
H         -2.82973       -2.73177       -0.24118
H         -2.45301       -1.67155        1.20778
H         -3.25429       -0.68098       -1.62567
H         -3.50863        1.41154       -0.13980
H         -1.51563        1.02493       -1.75268
H         -1.46684        2.27116       -0.47394
H          1.04142        1.57957       -1.31224
H          0.63001        2.43513        1.44226
H          1.55453        3.22397        0.34972
H          1.98017        0.00398        1.09438
H          2.95139        1.37442        0.56796
H          2.21306       -1.00181       -1.19866
H          3.10446        0.41858       -1.73311
H          4.70137       -1.33556       -1.27904
H          4.91509       -0.07592       -0.07358
H          5.01053       -2.38691        0.93135
H          3.34956       -2.68362        0.38861
H          3.67423       -1.45589        1.61832
H         -0.78498       -1.32063       -0.35806
H         -1.49531        0.49575        1.45616
