41
omegacsd_CEJTIU_01.log	Energy: -611038.9635196
C         -6.91795        0.81176       -0.20008
N         -6.06170       -0.34881       -0.31935
C         -6.61852       -1.61549        0.10581
C         -4.68465       -0.16174       -0.18168
C         -4.10481        1.11583       -0.26567
C         -2.73296        1.28710       -0.16334
C         -1.87950        0.20264        0.03623
C         -2.43807       -1.07082        0.13675
C         -3.81321       -1.24167        0.03345
N         -0.49597        0.47734        0.13478
C          0.50313       -0.42179        0.27885
O          0.40764       -1.63296        0.36038
N          1.80588        0.14826        0.34103
C          2.19625        1.45834        0.27767
O          1.41983        2.39503        0.14865
C          3.69333        1.71486        0.43270
C          4.60860        0.56228        0.09838
C          5.09050       -0.28465        1.09840
C          5.90720       -1.36733        0.78070
C          6.25239       -1.61382       -0.54369
C          5.77789       -0.77439       -1.54883
C          4.96115        0.30394       -1.22904
H         -6.71041        1.53253       -0.99853
H         -7.95917        0.49971       -0.30957
H         -6.80984        1.33071        0.76674
H         -7.70018       -1.59811       -0.04689
H         -6.41987       -1.84019        1.16671
H         -6.21883       -2.43784       -0.49727
H         -4.72087        1.99578       -0.41415
H         -2.31849        2.29111       -0.23721
H         -1.79535       -1.92670        0.29850
H         -4.20338       -2.24947        0.12511
H         -0.20196        1.45008        0.08255
H          2.52007       -0.56450        0.42131
H          3.90738        2.58920       -0.18890
H          3.83862        2.03215        1.47293
H          4.82963       -0.09135        2.13770
H          6.27507       -2.01638        1.57097
H          6.89038       -2.45727       -0.79372
H          6.04394       -0.96094       -2.58594
H          4.59150        0.95712       -2.01741
