66
omegapdb_1z1r_28.log	Energy: -1302681.4827826
C          0.10008       -0.77847       -1.61447
C          0.18020       -2.27845       -1.26446
C          1.59377       -2.66376       -0.90804
C          2.58102       -2.70759       -1.89688
C          3.92498       -2.76585       -1.55953
C          4.30415       -2.76921       -0.21613
C          3.33134       -2.85991        0.77767
C          1.98665       -2.79774        0.42370
O          5.63445       -2.64954        0.06257
C          5.97447       -1.62638        1.00481
C          5.77545       -0.20413        0.47373
C          4.34847        0.33569        0.28057
C          3.54560        0.40776        1.56642
O          3.94708       -0.05422        2.62077
N          2.27558        0.96683        1.52937
C          1.70610        1.93500        0.59628
C          1.03361        1.29247       -0.62952
O          0.72879        1.99319       -1.60323
N          0.71573       -0.00402       -0.53172
C          2.63216        3.11272        0.20573
C          1.97001        4.48922        0.29823
O          2.45297        5.37843        0.97671
N          0.81783        4.61938       -0.40709
C         -1.34076       -0.34076       -1.95348
O         -1.37674        0.71005       -2.89501
C         -2.16704        0.02723       -0.72127
N         -3.50838        0.36283       -1.18760
S         -4.56425        1.00086       -0.06921
O         -3.83555        1.69007        0.98930
O         -5.58012        1.68859       -0.84843
C         -5.26898       -0.46284        0.65141
C         -6.10126       -1.26473       -0.12646
C         -6.66433       -2.39896        0.44243
C         -6.39712       -2.71871        1.77375
C         -5.56963       -1.90589        2.54100
C         -4.99903       -0.76566        1.98010
H          0.68839       -0.60529       -2.52519
H         -0.17939       -2.83970       -2.13392
H         -0.50118       -2.50298       -0.43299
H          2.29644       -2.63835       -2.94577
H          4.70141       -2.74121       -2.31859
H          3.61612       -2.91551        1.82364
H          1.23069       -2.81994        1.20829
H          5.44157       -1.76222        1.94840
H          7.04042       -1.78137        1.19074
H          6.29813       -0.12428       -0.48711
H          6.29585        0.46116        1.17333
H          4.42642        1.34037       -0.14979
H          3.77933       -0.25427       -0.44845
H          1.90198        1.01112        2.46940
H          0.85373        2.36552        1.13786
H          1.09545       -0.49736        0.26775
H          3.47530        3.15553        0.89752
H          3.01741        2.97877       -0.81129
H          0.55186        3.91062       -1.08040
H          0.38711        5.53106       -0.43411
H         -1.83127       -1.18867       -2.44783
H         -0.70452        1.36028       -2.61550
H         -2.23146       -0.82064       -0.02705
H         -1.70701        0.86850       -0.18738
H         -3.47213        0.97329       -2.00391
H         -6.30298       -0.99424       -1.15899
H         -7.31680       -3.03379       -0.15054
H         -6.84297       -3.60636        2.21500
H         -5.37132       -2.15323        3.58023
H         -4.36056       -0.10467        2.55848
