36
omegapdb_1qxw_13.log	Energy: -410436.7129098
C          4.83185       -1.09041        0.12729
C          3.76706       -2.09347       -0.24157
C          3.59775       -0.63455       -0.57877
N          2.64952        0.19886        0.11226
C          1.25853       -0.07422       -0.23830
C          0.40601        1.04390        0.36001
C         -1.04580        1.08230       -0.14176
N         -1.02791        1.33883       -1.57861
C         -1.80839       -0.20408        0.17048
C         -3.30454       -0.11292       -0.12876
C         -4.07038       -1.36866        0.28553
C         -5.56149       -1.28498       -0.02999
O          0.97234        2.28679        0.04059
O          0.44795        0.84431        1.76530
H          4.93643       -0.83147        1.17867
H          5.76992       -1.09748       -0.41987
H          3.15811       -2.49364        0.56589
H          3.97129       -2.79836       -1.04268
H          3.70401       -0.36222       -1.62746
H          2.75154        0.09374        1.11877
H          0.90738       -1.05234        0.12140
H          1.14865       -0.04818       -1.32673
H         -1.51999        1.90516        0.43073
H         -0.48622        2.18358       -1.74013
H         -1.96979        1.52147       -1.91086
H         -1.65943       -0.44243        1.23083
H         -1.37616       -1.02580       -0.41594
H         -3.46292        0.05455       -1.20409
H         -3.73182        0.75944        0.38904
H         -3.63378       -2.24000       -0.22148
H         -3.92808       -1.53824        1.36157
H         -6.02648       -0.43775        0.48813
H         -6.08911       -2.19457        0.27602
H         -5.72857       -1.14696       -1.10489
H          1.93325        2.10922        0.00954
H          0.19453        1.69222        2.15598
