61
omegapdb_1v2k_10.log	Energy: -1425429.1321580
N        -10.00640        0.25556        1.26622
C         -9.04698        0.68439        2.08905
C         -7.71586        0.85533        1.74210
C         -7.30167        0.55910        0.42870
C         -8.30801        0.10265       -0.44490
C         -9.60649       -0.02171        0.02240
N         -5.99767        0.70479        0.02498
C         -4.93335        0.90036        0.99543
C         -3.61209        0.37281        0.44242
C         -3.17915        1.12764       -0.83605
C         -4.41703        1.59308       -1.62363
C         -5.63167        0.70060       -1.38794
C         -2.32040        0.19574       -1.69101
O         -2.79639       -0.39489       -2.65208
N         -1.01904       -0.02026       -1.33267
C         -0.29231        0.62291       -0.25429
C          0.34438       -0.41151        0.67342
N          1.02239       -1.43839       -0.12921
C          1.12231       -1.20035       -1.56594
C         -0.27786       -0.99828       -2.13254
S          2.20024       -2.32890        0.62094
O          1.71555       -2.58175        1.96562
O          2.56647       -3.39335       -0.29546
C          3.60482       -1.24266        0.76460
C          4.50117       -1.16517       -0.26912
C          5.59413       -0.26469       -0.19204
C          5.74152        0.54571        0.96375
C          4.79962        0.42329        2.02157
C          3.75278       -0.45261        1.93211
C          6.83354        1.45006        1.04214
C          7.72573        1.52774        0.00962
C          7.59390        0.72188       -1.14816
C          6.54892       -0.15422       -1.23950
Cl         9.06284        2.63305        0.09914
H         -9.36273        0.91888        3.10561
H         -7.02304        1.24203        2.48170
H         -8.08355       -0.18412       -1.46644
H        -10.38017       -0.38022       -0.65629
H         -4.82921        1.96073        1.28249
H         -5.17840        0.34333        1.90592
H         -3.74161       -0.69215        0.21319
H         -2.84332        0.43722        1.22163
H         -2.60269        2.01653       -0.55393
H         -4.67442        2.61451       -1.31957
H         -4.19405        1.60798       -2.69323
H         -5.42351       -0.31384       -1.75729
H         -6.47269        1.09658       -1.96530
H          0.48231        1.28563       -0.66386
H         -0.96248        1.24776        0.33545
H         -0.41702       -0.89443        1.29369
H          1.04709        0.10809        1.33980
H          1.77326       -0.34022       -1.79002
H          1.56378       -2.08625       -2.02574
H         -0.22011       -0.66583       -3.17554
H         -0.82335       -1.94668       -2.12195
H          4.39165       -1.81137       -1.13701
H          4.93212        1.02860        2.91512
H          3.05025       -0.58014        2.75029
H          6.95561        2.07377        1.92318
H          8.32652        0.81041       -1.94408
H          6.43791       -0.78066       -2.12133
