50
omegapdb_1xom_20.log	Energy: -710681.9528155
O          6.48127       -0.92068       -0.73440
C          5.70752       -0.13954        0.05372
O          6.02658        0.06286        1.19486
C          4.45687        0.42332       -0.61707
C          3.62706       -0.71844       -1.26493
C          2.14363       -0.36024       -1.27741
C          1.56844       -0.28320        0.16860
C          2.63235        0.33874        1.12514
C          3.61949        1.23731        0.38159
C          1.31987       -1.66911        0.61940
N          1.15047       -2.76649        0.94611
C          0.23667        0.47419        0.13016
C          0.14672        1.82778        0.42803
C         -1.06620        2.51034        0.31075
C         -2.21428        1.84794       -0.10935
O         -3.43167        2.42942       -0.26906
C         -3.54022        3.80834        0.01433
C         -2.13753        0.47145       -0.40425
C         -0.92456       -0.18579       -0.28727
O         -3.21792       -0.22302       -0.86219
C         -4.30993       -0.42158        0.05921
C         -5.28581       -1.34194       -0.66083
C         -4.63556       -2.73411       -0.55884
C         -3.76619       -2.69591        0.72619
C         -3.87621       -1.25443        1.26451
H          6.09129       -0.99553       -1.61648
H          4.80644        1.09616       -1.41338
H          3.96323       -0.91285       -2.29121
H          3.76071       -1.65682       -0.70976
H          1.99595        0.61563       -1.75391
H          1.56708       -1.08596       -1.85983
H          2.12820        0.87870        1.93176
H          3.20357       -0.46216        1.60737
H          4.29129        1.71459        1.09950
H          3.08787        2.03341       -0.15257
H          1.01865        2.38480        0.75924
H         -1.09700        3.56854        0.54835
H         -2.88737        4.40351       -0.63683
H         -4.58066        4.07332       -0.17870
H         -3.29890        4.02269        1.06347
H         -0.91307       -1.24840       -0.51971
H         -4.73392        0.55153        0.32633
H         -5.46313       -1.01655       -1.69006
H         -6.24427       -1.31787       -0.12784
H         -4.00677       -2.91366       -1.43597
H         -5.38524       -3.53098       -0.53078
H         -4.10187       -3.42320        1.47192
H         -2.72414       -2.94175        0.49669
H         -2.94899       -0.88965        1.71839
H         -4.66113       -1.18138        2.02748
