36
omegapdb_1qxw_30.log	Energy: -410429.8026476
C         -4.64071       -0.41743        0.52517
C         -4.63398       -1.02275       -0.85674
C         -3.70573        0.10206       -0.53975
N         -2.28953       -0.13425       -0.49178
C         -1.61279        0.61760        0.54737
C         -0.13597        0.22554        0.62718
C          0.61342        0.43899       -0.70699
N          0.69435        1.85433       -1.06232
C          2.00577       -0.21137       -0.76438
C          3.06227        0.34364        0.19710
C          4.49579       -0.01221       -0.20884
C          4.77313       -1.51426       -0.22459
O          0.38394        1.01878        1.67224
O         -0.02129       -1.14707        0.95012
H         -4.20526       -1.00701        1.32918
H         -5.49176        0.18859        0.82365
H         -5.47558       -0.83146       -1.51592
H         -4.20136       -2.01440       -0.97015
H         -3.95401        1.07313       -0.96649
H         -2.09443       -1.12348       -0.35943
H         -2.05071        0.46899        1.55268
H         -1.69254        1.68894        0.33059
H          0.00576       -0.05382       -1.47243
H         -0.18529        2.15777       -1.46849
H          0.82834        2.40565       -0.21794
H          1.89831       -1.29137       -0.61902
H          2.36347       -0.05109       -1.78947
H          2.97619        1.43742        0.24691
H          2.89897       -0.05456        1.21252
H          4.69558        0.41116       -1.20231
H          5.19430        0.47769        0.48178
H          5.82284       -1.71931       -0.46021
H          4.55620       -1.96345        0.75256
H          4.15915       -2.03063       -0.97036
H          1.31178        0.76932        1.78349
H         -0.42211       -1.25108        1.82551
