66
omegapdb_1z1r_00.log	Energy: -1302690.0475903
C          0.27963        0.78167        1.42995
C          0.38098        2.22337        0.89801
C          1.80545        2.51938        0.48720
C          2.81271        2.60362        1.45138
C          4.15233        2.62757        1.08714
C          4.50563        2.57214       -0.25994
C          3.51301        2.59244       -1.23749
C          2.17458        2.55292       -0.85792
O          5.83605        2.49410       -0.57318
C          6.24083        1.33599       -1.30786
C          6.06194        0.01497       -0.55647
C          4.66044       -0.59139       -0.63387
C          4.59096       -1.95514        0.03911
O          5.54811       -2.46046        0.59562
N          3.38313       -2.62007       -0.02297
C          2.12452       -2.02472       -0.40448
C          1.47341       -1.27918        0.77200
O          1.51303       -1.73539        1.91523
N          0.85137       -0.12954        0.44897
C          1.14805       -3.08747       -0.92110
C         -0.11445       -2.41288       -1.45478
O         -0.05253       -1.31994       -2.01531
N         -1.27242       -3.07037       -1.26156
C         -1.13062        0.35753        1.86207
O         -1.09783       -0.87009        2.56536
C         -2.09687        0.21818        0.67819
N         -3.30097       -0.44543        1.17654
S         -4.39263       -1.02351        0.07419
O         -5.23155       -1.95797        0.80517
O         -3.72818       -1.45411       -1.15977
C         -5.32543        0.42671       -0.34148
C         -6.25294        0.90962        0.57860
C         -6.98475        2.04538        0.25855
C         -6.78566        2.68219       -0.96608
C         -5.85933        2.18528       -1.87725
C         -5.12090        1.04572       -1.56888
H          0.91243        0.70188        2.32289
H          0.03821        2.90640        1.68436
H         -0.29265        2.35804        0.04138
H          2.54986        2.60227        2.50826
H          4.94142        2.64433        1.83316
H          3.78659        2.59857       -2.28929
H          1.40472        2.52072       -1.62776
H          5.72814        1.30356       -2.28082
H          7.30257        1.50928       -1.50036
H          6.35252        0.15798        0.48986
H          6.77280       -0.71133       -0.96669
H          3.91826        0.06216       -0.16018
H          4.35039       -0.69024       -1.68393
H          3.33602       -3.39118        0.63210
H          2.29661       -1.32570       -1.22507
H          0.73139        0.06467       -0.53890
H          1.63070       -3.63898       -1.73586
H          0.91235       -3.80197       -0.12330
H         -1.30799       -3.92104       -0.72301
H         -2.15009       -2.59807       -1.47032
H         -1.52474        1.12455        2.54526
H         -0.19723       -1.24757        2.53267
H         -2.37255        1.20727        0.29160
H         -1.63009       -0.35277       -0.13514
H         -3.06175       -1.18439        1.83939
H         -6.39812        0.39292        1.52298
H         -7.71516        2.43323        0.96303
H         -7.36179        3.57053       -1.21175
H         -5.71356        2.67990       -2.83347
H         -4.40286        0.62681       -2.26748
