66
omegapdb_1z1r_18.log	Energy: -1302677.6520757
C          0.88568        0.99580       -0.33215
C          1.07389       -0.18691       -1.32194
C         -0.08383       -1.15859       -1.29766
C         -0.41952       -1.85594       -0.13339
C         -1.59407       -2.59397       -0.05220
C         -2.45432       -2.65308       -1.14957
C         -2.09227       -2.03577       -2.34224
C         -0.91760       -1.29242       -2.40703
O         -3.67885       -3.27151       -1.07389
C         -4.55811       -2.67069       -0.11557
C         -4.92098       -1.23798       -0.52103
C         -5.38392       -0.33806        0.63776
C         -4.44365       -0.37768        1.83569
O         -4.66418       -1.13307        2.77137
N         -3.34323        0.43270        1.84524
C         -2.76375        1.19659        0.76345
C         -1.23320        1.01623        0.87853
O         -0.74155        0.57462        1.91137
N         -0.51170        1.37339       -0.20583
C         -3.16838        2.67953        0.82419
C         -2.98143        3.40051       -0.50370
O         -2.63866        2.82657       -1.53016
N         -3.25731        4.72659       -0.48297
C          1.70510        2.23872       -0.71106
O          1.27550        2.80603       -1.93654
C          3.21644        1.99916       -0.74002
N          3.70007        1.60425        0.57951
S          5.05750        0.63845        0.68146
O          5.52306        0.80355        2.04778
O          5.94158        0.87176       -0.45107
C          4.35140       -0.97788        0.47269
C          4.66702       -1.71456       -0.66216
C          4.07410       -2.96312       -0.84068
C          3.18753       -3.45493        0.11117
C          2.89542       -2.71154        1.25584
C          3.47669       -1.46470        1.44286
H          1.19936        0.67560        0.66496
H          1.17103        0.19569       -2.34788
H          2.01591       -0.69667       -1.08405
H          0.21488       -1.77073        0.74593
H         -1.86169       -3.09796        0.87276
H         -2.76653       -2.10201       -3.19151
H         -0.67254       -0.76890       -3.32968
H         -5.44009       -3.31589       -0.08873
H         -4.10360       -2.69405        0.88149
H         -5.69930       -1.25743       -1.29201
H         -4.04088       -0.79074       -0.99451
H         -5.51255        0.68522        0.26316
H         -6.35094       -0.67697        1.02005
H         -2.68574        0.23175        2.59321
H         -3.07496        0.80297       -0.20832
H         -1.00978        1.72080       -1.02080
H         -4.23062        2.73541        1.09403
H         -2.61942        3.19667        1.62133
H         -3.14497        5.25179       -1.33684
H         -3.52395        5.21201        0.35804
H          1.48440        3.00640        0.04010
H          1.55878        2.22767       -2.65714
H          3.45732        1.19377       -1.44451
H          3.71398        2.90359       -1.11056
H          3.78567        2.35738        1.25558
H          5.36559       -1.30651       -1.38665
H          4.30598       -3.54884       -1.72576
H          2.71974       -4.42476       -0.03466
H          2.21007       -3.10515        2.00156
H          3.25556       -0.86972        2.32481
