39
omegacsd_FIBREN_06.log	Energy: -667549.4024413
N          2.57304       -2.01648        1.04157
C          1.27069       -2.01521        1.33769
N          0.35398       -1.10285        0.96577
C          0.72932       -0.06644        0.20966
C          2.08382        0.03826       -0.15557
C          2.90183       -0.96843        0.30265
O          4.15785       -0.70317       -0.15104
C          4.01912        0.46232       -0.86301
N          2.82530        0.94810       -0.90429
C          5.25310        1.00320       -1.48768
N         -0.19885        0.83907       -0.19163
C         -1.56502        0.77656        0.29835
C         -2.28696        2.09667       -0.03681
C         -1.57804        3.30224        0.52667
O         -0.49701        3.69964        0.14995
O         -2.25942        3.90120        1.51564
C         -2.35037       -0.37790       -0.30634
C         -2.22976       -0.68940       -1.65951
C         -2.99801       -1.70491       -2.21927
C         -3.89699       -2.41773       -1.43064
C         -4.01992       -2.11196       -0.07855
C         -3.24808       -1.09734        0.47904
C          0.75819       -3.14185        2.18940
H          5.00954        1.93140       -2.00606
H          6.01509        1.19992       -0.72728
H          5.66858        0.28581       -2.20229
H          0.14972        1.73765       -0.50643
H         -1.55417        0.64228        1.38906
H         -2.32523        2.21317       -1.12574
H         -3.30996        2.04570        0.34133
H         -1.71154        4.64818        1.81133
H         -1.51416       -0.14332       -2.27065
H         -2.89082       -1.94296       -3.27466
H         -4.49492       -3.21370       -1.86716
H         -4.71135       -2.67116        0.54683
H         -3.33339       -0.87106        1.54059
H          1.54333       -3.88208        2.35155
H         -0.10616       -3.61058        1.70989
H          0.42228       -2.75400        3.15706
