40
omegapdb_2byh_14.log	Energy: -1016184.2631439
O         -7.67084       -0.41489       -0.20283
C         -6.70712       -1.02176        0.22511
C         -6.87181       -2.37881        0.87684
C         -5.33300       -0.44054        0.11744
C         -4.19113       -1.08719        0.59069
C         -2.92900       -0.51617        0.47601
C         -2.80026        0.73839       -0.12754
C         -3.94263        1.39519       -0.60745
C         -5.18924        0.81230       -0.48582
N         -1.57266        1.40459       -0.28100
C         -0.31216        0.97038        0.06320
O         -0.08222       -0.12631        0.54525
C          0.75813        1.96253       -0.20158
C          0.65142        3.34965       -0.47637
N          1.83114        3.92577       -0.60439
N          2.70377        2.92510       -0.41074
C          2.12774        1.71985       -0.16748
C          2.95529        0.51885        0.04074
C          2.65262       -0.68538       -0.60248
C          3.46699       -1.79305       -0.47474
Cl         3.07706       -3.26664       -1.29763
C          4.62065       -1.72804        0.32104
O          5.39195       -2.83142        0.41635
C          4.92116       -0.54446        0.98529
C          4.09568        0.56728        0.85406
O          4.47164        1.68761        1.53667
H         -7.93102       -2.64006        0.87506
H         -6.30652       -3.14365        0.33270
H         -6.50095       -2.36465        1.90774
H         -4.27127       -2.06274        1.06357
H         -2.04989       -1.02783        0.84271
H         -3.84475        2.37185       -1.07892
H         -6.07974        1.31284       -0.85448
H         -1.62994        2.29501       -0.75226
H         -0.23932        3.96241       -0.55702
H          3.69103        3.10170       -0.53354
H          1.76077       -0.75569       -1.21524
H          6.13900       -2.64619        1.00004
H          5.79244       -0.46985        1.63090
H          3.70014        2.25743        1.66608
