39
omegacsd_GALSEM_09.log	Energy: -1046257.1028900
S          2.49126        0.11362        1.49869
O          3.42682        0.98444        2.16959
O          1.62421       -0.78048        2.26592
N          3.32643       -0.98162        0.51868
C          4.33038       -0.61309       -0.37652
O          4.52837        0.54414       -0.66702
C          5.10703       -1.78593       -0.94553
C          6.09246       -1.34680       -2.01946
C          1.52689        1.05605        0.37142
C          0.27716        0.61561       -0.12979
N         -0.30786       -0.54932        0.28227
C         -1.63363       -0.96627        0.00294
C         -2.72021       -0.09676        0.10242
C         -4.00303       -0.56776       -0.15006
C         -4.22475       -1.90378       -0.47166
C         -3.14330       -2.77305       -0.54302
C         -1.85331       -2.30598       -0.31767
C         -5.17769        0.36259       -0.00727
F         -5.72534        0.28180        1.21871
F         -6.14798        0.06848       -0.89138
F         -4.82538        1.64576       -0.20106
C         -0.29724        1.45023       -1.10771
C          0.33973        2.62137       -1.46774
N          1.49875        3.06119       -0.95935
C          2.07202        2.26673       -0.06676
H          3.23506       -1.94119        0.83053
H          4.39253       -2.52045       -1.33972
H          5.62835       -2.27849       -0.11362
H          6.80197       -0.61849       -1.61899
H          6.65027       -2.20771       -2.39899
H          5.57191       -0.87300       -2.85599
H          0.16110       -1.03419        1.04028
H         -2.56623        0.94153        0.37915
H         -5.23317       -2.25483       -0.66767
H         -3.30263       -3.81851       -0.79098
H         -1.00147       -2.97661       -0.39491
H         -1.23136        1.17711       -1.58454
H         -0.11646        3.26063       -2.22213
H          3.02688        2.58633        0.34134
