57
omegacsd_SPIRIL_10.log	Energy: -797192.9009619
C          2.54095       -0.32280        1.42795
C          3.24311       -0.81251        0.13471
C          3.21958       -2.34811        0.07639
O          2.25385       -3.06071        0.25458
N          4.47378       -2.75975       -0.24352
C          5.44822       -1.70499       -0.31223
N          4.68645       -0.54041        0.09945
C          5.28572        0.71246        0.02009
C          4.57877        1.90444        0.26115
C          5.21759        3.13558        0.20061
C          6.57334        3.23204       -0.09600
C          7.28182        2.06053       -0.33209
C          6.65658        0.82025       -0.27825
C          2.50671       -0.28710       -1.11599
C          0.99210       -0.52311       -1.06965
N          0.41128       -0.27131        0.25095
C         -0.94384        0.23502        0.18368
C         -1.91679       -0.78220       -0.42202
C         -3.32498       -0.26038       -0.41653
C         -4.42334       -0.83835        0.08817
C         -5.73600       -0.13162        0.01467
C         -5.82278        1.25546        0.18561
C         -7.03847        1.92339        0.10473
C         -8.18632        1.18770       -0.14112
C         -8.14966       -0.18759       -0.29996
C         -6.92346       -0.83691       -0.21462
F         -9.36971        1.82515       -0.21580
C         -4.44122       -2.20713        0.72485
C          1.27427        0.48247        1.13879
H          3.24226        0.26007        2.03279
H          2.24129       -1.19841        2.01181
H          4.70189       -3.73901       -0.31044
H          6.28990       -1.89012        0.37149
H          5.85526       -1.59503       -1.33212
H          3.52300        1.87904        0.50168
H          4.63720        4.03511        0.39193
H          7.06554        4.19901       -0.14147
H          8.34337        2.10269       -0.56444
H          7.25239       -0.06682       -0.46773
H          2.92028       -0.76605       -2.01182
H          2.71602        0.78248       -1.21552
H          0.77295       -1.55647       -1.36123
H          0.53302        0.13772       -1.82777
H         -1.27360        0.46268        1.20500
H         -1.00242        1.18420       -0.39122
H         -1.81535       -1.72179        0.12900
H         -1.62147       -0.99456       -1.45925
H         -3.44705        0.71092       -0.90025
H         -4.92071        1.81960        0.40804
H         -7.10949        2.99761        0.24415
H         -9.07079       -0.73056       -0.48734
H         -6.89465       -1.91566       -0.34405
H         -3.43732       -2.56997        0.95361
H         -4.90841       -2.94597        0.06156
H         -5.02177       -2.19540        1.65398
H          0.73949        0.64194        2.08178
H          1.51367        1.49314        0.74761
