66
omegapdb_1z1r_02.log	Energy: -1302687.1712752
C         -0.13995       -1.56830       -0.65804
C         -1.02254       -2.77729       -1.00673
C         -2.41689       -2.58098       -0.46374
C         -3.47337       -2.23180       -1.30021
C         -4.71455       -1.85270       -0.78933
C         -4.90132       -1.80476        0.58922
C         -3.87069       -2.20863        1.43958
C         -2.64869       -2.59142        0.91577
O         -6.06558       -1.42341        1.19224
C         -6.81868       -0.36289        0.62377
C         -6.17352        1.01933        0.77095
C         -5.23429        1.47943       -0.35226
C         -3.74638        1.38632       -0.02185
O         -3.30581        1.07639        1.06874
N         -2.92221        1.71411       -1.07294
C         -1.50617        1.99081       -0.89119
C         -0.74642        0.78350       -0.32395
O         -0.04542        0.88498        0.67921
N         -0.79529       -0.33772       -1.07591
C         -1.15096        3.23447       -0.07401
C          0.31375        3.55465       -0.38118
O          0.66902        3.69752       -1.54270
N          1.15887        3.66633        0.67754
C          1.27306       -1.69846       -1.26826
O          1.90102       -2.85825       -0.76413
C          2.17197       -0.47702       -1.04546
N          2.45348       -0.35868        0.39265
S          3.66097        0.71438        0.82378
O          3.64549        1.90072       -0.02986
O          3.54552        0.86119        2.26562
C          5.12871       -0.20111        0.42743
C          5.49916       -1.26466        1.24706
C          6.64877       -1.97973        0.93837
C          7.41214       -1.62725       -0.17433
C          7.03452       -0.55715       -0.97897
C          5.88421        0.16786       -0.67917
H         -0.03970       -1.51930        0.43330
H         -0.53858       -3.67094       -0.60142
H         -1.05494       -2.90152       -2.09868
H         -3.33015       -2.24810       -2.38069
H         -5.52033       -1.59444       -1.47063
H         -4.04281       -2.17619        2.51087
H         -1.84357       -2.86840        1.59420
H         -7.07135       -0.57197       -0.42576
H         -7.75468       -0.38319        1.18819
H         -6.99406        1.74187        0.84674
H         -5.63269        1.04773        1.72311
H         -5.42379        0.93286       -1.28500
H         -5.42805        2.53627       -0.58116
H         -3.35494        2.12704       -1.88658
H         -1.09655        2.15948       -1.89386
H         -1.53345       -0.39335       -1.76476
H         -1.34570        3.06950        0.98761
H         -1.75598        4.07651       -0.42677
H          0.89242        3.18372        1.52450
H          2.14227        3.58037        0.44002
H          1.16535       -1.83849       -2.35243
H          2.32803       -2.58310        0.06353
H          3.11705       -0.66461       -1.56663
H          1.73146        0.43958       -1.45476
H          1.60650       -0.03147        0.87693
H          4.89834       -1.51132        2.11811
H          6.95450       -2.81010        1.56868
H          8.31193       -2.18929       -0.41057
H          7.63703       -0.28120       -1.83985
H          5.57190        1.01725       -1.27971
