35
omegacsd_DIAVER_01.log	Energy: -548602.6912045
N          4.26719        0.39235       -1.08460
C          4.44534        0.46064        0.23868
N          3.59304        0.05731        1.19067
C          2.45827       -0.50143        0.77256
C          2.15388       -0.66108       -0.60108
C          3.11782       -0.17516       -1.46210
C          0.89082       -1.33254       -1.07318
C         -0.39326       -0.60899       -0.69849
C         -1.48280       -1.31465       -0.17747
C         -2.66705       -0.67822        0.16423
C         -2.79055        0.71166       -0.01463
C         -1.71388        1.42118       -0.54167
C         -0.52963        0.76430       -0.87341
O         -3.97511        1.26280        0.36567
C         -4.11334        2.66178        0.23842
O         -3.67462       -1.41269        0.72893
C         -4.83036       -1.56049       -0.08414
N          1.60696       -0.95800        1.74129
N          5.63365        0.97966        0.67267
H          2.95958       -0.25044       -2.53993
H          0.84363       -2.35544       -0.67445
H          0.94217       -1.43561       -2.16528
H         -1.42675       -2.38989       -0.01848
H         -1.78153        2.49450       -0.68694
H          0.30536        1.34076       -1.26555
H         -3.36713        3.19407        0.84205
H         -5.11205        2.90012        0.60736
H         -4.02649        2.98193       -0.80802
H         -5.51561       -2.20182        0.47397
H         -5.30741       -0.59473       -0.27780
H         -4.57565       -2.04380       -1.03663
H          0.62224       -1.00573        1.52049
H          1.82944       -0.64350        2.67472
H          6.15917        1.51079       -0.00310
H          5.67135        1.27652        1.63439
