44
omegacsd_CUHNEY10_17.log	Energy: -1049273.3920874
Cl        -2.37387       -5.09914       -0.04543
C         -1.19531       -3.82800       -0.10634
C         -0.24582       -3.70696        0.90009
N          0.67211       -2.74614        0.91338
C          0.69631       -1.88519       -0.09721
N          1.69661       -0.89046       -0.05031
C          2.94960       -1.04297        0.57273
O          3.40185       -2.02798        1.09051
C          3.62075        0.28778        0.38580
N          4.81648        0.65115        0.83242
C          5.14114        1.90449        0.51163
C          4.29803        2.74638       -0.22593
N          3.09968        2.36347       -0.67396
C          2.79527        1.11566       -0.34753
C          1.51991        0.39790       -0.70107
O          0.40523        1.08818       -0.16633
C         -0.57106        1.45347       -1.05459
O         -0.55466        1.14840       -2.23460
N         -1.52416        2.17799       -0.43527
C         -1.47812        2.50627        0.98993
C         -2.85160        3.01328        1.42975
N         -3.86911        2.13932        0.88122
C         -3.98193        2.27093       -0.56909
C         -2.64733        2.69169       -1.19964
C         -5.15587        2.26391        1.52940
C         -0.22159       -1.91747       -1.15409
C         -1.18974       -2.90877       -1.14764
H         -0.23603       -4.40573        1.73409
H          6.10949        2.26439        0.85168
H          4.60760        3.76256       -0.45900
H          1.38435        0.30659       -1.78240
H         -0.70180        3.25573        1.19123
H         -1.23335        1.60063        1.54960
H         -2.99722        4.07395        1.14601
H         -2.89893        2.97191        2.52294
H         -4.73850        3.02814       -0.84899
H         -4.31664        1.30998       -0.97925
H         -2.57616        3.78625       -1.24142
H         -2.55877        2.31741       -2.21974
H         -5.61049        3.26520        1.40137
H         -5.05496        2.06354        2.60110
H         -5.84795        1.52461        1.11138
H         -0.20503       -1.17949       -1.94980
H         -1.92639       -2.97101       -1.94294
