44
omegacsd_CUHNEY10_02.log	Energy: -1049282.2414267
Cl         2.85271        4.61047       -0.38950
C          1.46856        3.58078       -0.21558
C          1.42055        2.35973       -0.87096
N          0.38396        1.53188       -0.76700
C         -0.64784        1.89187       -0.00724
N         -1.69367        0.95235        0.03687
C         -2.91754        1.10851        0.68902
O         -3.28311        2.05527        1.34643
C         -3.68082       -0.14099        0.37662
N         -4.90838       -0.44586        0.77804
C         -5.32227       -1.63677        0.34433
C         -4.52841       -2.47520       -0.45085
N         -3.29440       -2.15281       -0.84434
C         -2.90049       -0.96277       -0.41296
C         -1.56223       -0.32160       -0.67392
O         -0.52565       -1.08671       -0.10575
C          0.46095       -1.47936       -0.97606
O          0.31941       -1.48972       -2.17944
N          1.56548       -1.89717       -0.30531
C          1.82492       -1.57373        1.09515
C          2.63517       -2.70497        1.73624
N          3.84477       -3.05525        1.00637
C          3.51496       -3.36793       -0.37799
C          2.73828       -2.26050       -1.09423
C          4.91672       -2.08610        1.14840
C         -0.69422        3.10467        0.69341
C          0.39069        3.95726        0.57888
H          2.24313        2.03644       -1.50535
H         -6.32250       -1.94738        0.63708
H         -4.91037       -3.44004       -0.77658
H         -1.35495       -0.17165       -1.73617
H          2.36936       -0.61819        1.15695
H          0.87547       -1.44866        1.61479
H          2.90340       -2.43003        2.76294
H          2.00049       -3.59978        1.78601
H          4.44010       -3.58457       -0.92444
H          2.90513       -4.28112       -0.38170
H          3.37140       -1.37221       -1.24507
H          2.39685       -2.59178       -2.07618
H          5.81459       -2.46975        0.65179
H          4.70470       -1.08543        0.73236
H          5.14932       -1.96209        2.21162
H         -1.55525        3.35890        1.29631
H          0.40161        4.90932        1.10115
