45
omegacsd_SEYMIS_01.log	Energy: -753209.6827375
O         -5.22597       -0.80201       -0.38914
N         -4.79934        0.49923       -0.24193
C         -3.50824        0.43760       -0.03616
C         -3.04951       -0.92495       -0.03984
C         -1.69854       -1.53771        0.07657
O         -1.55037       -2.72561        0.34179
N         -0.64902       -0.70500       -0.16227
C          0.70451       -1.06718       -0.06437
C          1.24274       -2.32132        0.16693
N          2.59912       -2.20592        0.18655
C          3.50435       -3.32214        0.41054
C          2.94031       -0.89248       -0.02943
C          1.77615       -0.16227       -0.18759
C          4.33060       -0.43831       -0.06488
O          5.30742       -1.14627        0.08202
O          4.40608        0.88636       -0.28351
C          5.73587        1.42304       -0.33849
C          5.60927        2.91041       -0.58646
C         -4.19352       -1.64047       -0.26186
C         -4.49089       -3.08978       -0.40145
C         -2.77183        1.70904        0.16026
C         -3.04354        2.79318       -0.67901
C         -2.38381        4.00293       -0.49666
C         -1.44580        4.14102        0.52282
C         -1.17593        3.06773        1.36734
C         -1.83833        1.85697        1.19135
H         -0.83808        0.25820       -0.39820
H          0.74742       -3.26681        0.32025
H          4.17712       -3.44836       -0.43917
H          4.10917       -3.15377        1.30323
H          2.89900       -4.22154        0.53940
H          1.72300        0.90370       -0.36792
H          6.28964        0.91883       -1.13708
H          6.24639        1.20586        0.60528
H          5.08966        3.10298       -1.52978
H          5.05056        3.39199        0.22162
H          6.60298        3.36623       -0.63957
H         -3.56442       -3.65580       -0.30752
H         -5.18652       -3.40553        0.38257
H         -4.96199       -3.28720       -1.36936
H         -3.77927        2.67659       -1.46965
H         -2.60144        4.83965       -1.15507
H         -0.92817        5.08647        0.66229
H         -0.45324        3.17308        2.17200
H         -1.63761        1.02575        1.86315
