66
omegapdb_1z1r_16.log	Energy: -1302679.2249094
C          0.33024        0.82663        0.25712
C          0.65742       -0.17194       -0.87228
C         -0.39882       -1.24288       -1.00389
C         -0.54299       -2.22969       -0.02537
C         -1.58115       -3.15063       -0.08270
C         -2.49662       -3.09876       -1.13104
C         -2.32621       -2.17114       -2.15605
C         -1.29132       -1.24428       -2.07680
O         -3.56076       -3.96484       -1.10482
C         -4.85058       -3.35488       -1.03267
C         -5.09417       -2.53195        0.23330
C         -4.50986       -1.12012        0.20414
C         -4.85713       -0.32514        1.44801
O         -5.49877       -0.78699        2.37324
N         -4.43223        0.98992        1.47791
C         -3.41060        1.54818        0.61962
C         -2.00307        1.02767        1.00123
O         -1.82913        0.38948        2.02851
N         -1.02039        1.34352        0.12287
C         -3.49857        3.08038        0.68828
C         -2.99939        3.78674       -0.56465
O         -2.50436        3.20223       -1.51875
N         -3.14577        5.13588       -0.55096
C          1.29564        2.01454        0.34333
O          1.20990        2.72268       -0.89076
C          2.75709        1.66856        0.65504
N          3.41176        1.16175       -0.54576
S          5.06008        0.94347       -0.49417
O          5.47756        0.88309       -1.88525
O          5.67537        1.88668        0.43129
C          5.18613       -0.67017        0.23726
C          5.78153       -0.80719        1.48471
C          5.88291       -2.07784        2.04644
C          5.39222       -3.18327        1.35991
C          4.80038       -3.03114        0.10563
C          4.69645       -1.76995       -0.46503
H          0.35118        0.30575        1.22019
H          0.75050        0.37822       -1.81632
H          1.63829       -0.61636       -0.67037
H          0.14733       -2.25751        0.81596
H         -1.72370       -3.89189        0.69830
H         -3.02127       -2.15361       -2.99172
H         -1.18279       -0.49751       -2.86156
H         -5.54311       -4.20041       -1.06157
H         -5.03391       -2.74562       -1.93081
H         -6.17671       -2.45645        0.38884
H         -4.70342       -3.07909        1.09795
H         -4.86571       -0.57986       -0.68488
H         -3.41823       -1.14828        0.12862
H         -4.45231        1.34924        2.42494
H         -3.61155        1.25275       -0.41521
H         -1.27001        1.84713       -0.72380
H         -4.55289        3.34808        0.82977
H         -2.95384        3.46598        1.56028
H         -2.90360        5.64570       -1.38716
H         -3.65523        5.61411        0.17455
H          0.92749        2.64601        1.16423
H          1.44410        3.64563       -0.73463
H          3.27136        2.56172        1.03649
H          2.80018        0.90390        1.44063
H          3.15893        1.69164       -1.37773
H          6.16071        0.07384        1.99372
H          6.34740       -2.20163        3.02071
H          5.47229       -4.17293        1.80195
H          4.42225       -3.89871       -0.42776
H          4.24576       -1.63183       -1.44411
