24
omegapdb_1gs5_00.log	Energy: -441850.8922791
C          0.48403        0.61470       -0.03349
C          1.32372        1.86719       -0.22259
O          2.49435        1.95475        0.06902
O          0.60899        2.87854       -0.72362
C         -0.57106        0.86052        1.06265
C         -1.61998       -0.25312        1.18705
C         -2.56473       -0.23083       -0.01062
O         -3.56407        0.44480       -0.02101
O         -2.19508       -0.94423       -1.08008
N          1.40681       -0.45834        0.28527
C          1.23646       -1.74240       -0.09913
O          0.20453       -2.15783       -0.62706
C          2.39590       -2.67493        0.16043
H         -0.01620        0.39263       -0.98365
H          1.20545        3.64314       -0.78952
H         -0.04503        0.97818        2.01768
H         -1.08702        1.80341        0.85011
H         -1.14064       -1.22979        1.30624
H         -2.23158       -0.05799        2.07106
H         -1.36036       -1.43760       -0.90909
H          2.31677       -0.15189        0.60599
H          2.75809       -3.05326       -0.79961
H          2.03381       -3.53123        0.73454
H          3.22323       -2.20221        0.69562
