36
omegapdb_1qxw_11.log	Energy: -410435.0649627
C         -3.69362       -2.07923       -0.05791
C         -4.74016       -1.04878        0.28611
C         -3.55722       -0.65630       -0.53581
N         -2.57243        0.23707        0.01605
C         -1.20357       -0.07386       -0.38341
C         -0.31417        1.07916        0.08264
C          1.11997        1.06620       -0.48331
N          1.89406        2.21978       -0.03427
C          1.87055       -0.22381       -0.15357
C          3.27999       -0.26865       -0.74545
C          3.99319       -1.60533       -0.52693
C          4.25830       -1.93121        0.94253
O         -0.88881        2.29617       -0.30739
O         -0.30772        0.99249        1.50663
H         -3.94387       -2.85342       -0.77782
H         -3.03167       -2.40429        0.74153
H         -5.71063       -1.10727       -0.19751
H         -4.77948       -0.69493        1.31401
H         -3.73258       -0.47843       -1.59551
H         -2.61078        0.22613        1.03255
H         -1.16460       -0.13796       -1.47754
H         -0.84348       -1.02737        0.02826
H          1.01974        1.15417       -1.57423
H          2.03778        2.15586        0.97155
H          1.35874        3.06610       -0.21045
H          1.30080       -1.08364       -0.53304
H          1.90081       -0.33364        0.93915
H          3.87710        0.54821       -0.32347
H          3.21445       -0.06748       -1.82377
H          3.40158       -2.41388       -0.97972
H          4.94858       -1.58724       -1.06704
H          4.82971       -1.12767        1.42318
H          3.32623       -2.05741        1.50455
H          4.83245       -2.85828        1.04583
H         -1.85141        2.13280       -0.27044
H         -0.13812        1.89314        1.81425
