34
omegapdb_2f7p_00.log	Energy: -719064.9678823
C          1.15075       -0.33418       -0.81845
N         -0.21373        0.01460       -0.43301
C         -1.21402       -1.00079       -0.75867
C         -2.59544       -0.55332       -0.33947
C         -3.13003        0.63654       -0.84036
C         -4.40061        1.05379       -0.46438
C         -5.15561        0.28536        0.42029
C         -4.63092       -0.89829        0.92586
C         -3.35533       -1.31231        0.54760
C          1.97461        0.97476       -1.00510
O          1.13810        2.07847       -1.26013
C          2.77579        1.17838        0.32431
O          2.42088        2.39124        0.94818
C          2.38679       -0.01438        1.23732
O          1.28398        0.35809        2.03921
C          1.91842       -1.11027        0.27199
S          3.31152       -1.98464       -0.51696
H          1.09639       -0.89478       -1.75878
H         -0.22491        0.19765        0.57048
H         -0.98829       -1.97402       -0.29133
H         -1.18527       -1.15736       -1.84489
H         -2.53866        1.23682       -1.52864
H         -4.80661        1.97985       -0.86376
H         -6.15010        0.61159        0.71398
H         -5.21230       -1.50178        1.61827
H         -2.94514       -2.23712        0.94936
H          2.67274        0.86575       -1.84064
H          0.23399        1.72701       -1.08936
H          3.85306        1.16672        0.12696
H          1.82083        2.82102        0.30511
H          3.22250       -0.34429        1.87117
H          1.39111        1.32347        2.14582
H          1.27371       -1.83307        0.78080
H          3.90878       -2.38956        0.61415
