45
omegacsd_FABSOQ10_08.log	Energy: -924265.9972913
S         -0.64040       -0.45346       -0.97751
C         -1.12330       -1.37339        0.40797
C         -0.09450       -1.49518        1.29214
C          1.10342       -0.85181        0.85254
C          0.97112       -0.26127       -0.36988
C          1.95799        0.58769       -1.14018
O          1.54220        1.94617       -1.13044
C          3.38983        0.40981       -0.65200
C          4.16096        1.50461       -0.29039
C          5.48443        1.35726        0.13114
C          6.05233        0.08766        0.18058
O          7.32742       -0.17776        0.57086
C          8.13207        0.91411        0.95898
C          5.28914       -1.02466       -0.19621
C          3.97925       -0.86102       -0.60638
C         -2.49715       -1.99167        0.50323
O         -2.63051       -3.08961       -0.38701
C         -3.63367       -0.98685        0.34367
C         -4.83787       -1.37897       -0.24962
C         -5.89644       -0.49411       -0.36682
C         -5.77903        0.81101        0.11941
O         -6.87052        1.60505       -0.04416
C         -6.78760        2.93434        0.42063
C         -4.58961        1.21439        0.72545
C         -3.53186        0.31310        0.82955
H         -0.18324       -2.03912        2.22765
H          2.03073       -0.84158        1.41576
H          1.91727        0.30530       -2.19959
H          1.34761        2.17146       -0.20985
H          3.72947        2.49885       -0.35787
H          6.05321        2.23935        0.40640
H          8.26398        1.62961        0.13690
H          7.70815        1.43674        1.82645
H          9.10179        0.49373        1.22987
H          5.75222       -2.00628       -0.15779
H          3.39835       -1.73554       -0.89313
H         -2.56519       -2.44767        1.49858
H         -2.55224       -2.74416       -1.28770
H         -4.93789       -2.39530       -0.61962
H         -6.83195       -0.79042       -0.83230
H         -7.74937        3.39594        0.19160
H         -6.61755        2.97241        1.50460
H         -5.98883        3.48898       -0.08890
H         -4.46862        2.22052        1.11293
H         -2.60718        0.64138        1.29941
