25
omegapdb_1m5f_11.log	Energy: -499677.4194645
O         -1.99804       -2.67085        0.21391
C         -1.25412       -1.81298       -0.48733
O         -0.47283       -2.15158       -1.34730
C         -1.50237       -0.39264       -0.12426
N         -2.60631       -0.02829        0.47193
O         -2.51529        1.32990        0.60780
C         -1.34932        1.76446        0.08856
C         -0.64559        0.71314       -0.40601
C          0.70184        0.71099       -1.06249
C          1.90301        0.71355       -0.10040
N          3.19069        0.92069       -0.76939
C          1.99894       -0.56555        0.75636
O          1.04171       -1.16576        1.17562
O          3.25183       -0.92429        1.03920
C         -1.09285        3.22805        0.16703
H         -1.75271       -3.55647       -0.10176
H          0.79443        1.60538       -1.69290
H          0.76973       -0.16171       -1.71993
H          1.77935        1.53124        0.62300
H          3.34491        1.90109       -0.97938
H          3.21324        0.41691       -1.65330
H          3.82501       -0.29740        0.54409
H         -0.20117        3.48648       -0.41106
H         -0.93779        3.54403        1.20384
H         -1.94190        3.79024       -0.23300
