40
omegapdb_2byh_08.log	Energy: -1016184.8611542
O          5.97830        1.65641       -0.73697
C          5.75461        0.51734       -0.37187
C          6.88753       -0.39995        0.04034
C          4.35536       -0.00677       -0.32042
C          3.31297        0.84942       -0.68856
C          2.00188        0.41459       -0.65809
C          1.69789       -0.89630       -0.26232
C          2.72963       -1.76307        0.11006
C          4.04213       -1.30687        0.07819
N          0.34263       -1.26217       -0.26650
C         -0.24631       -2.37978        0.28186
O          0.38222       -3.31353        0.75200
C         -1.72924       -2.40810        0.23395
C         -2.45452       -3.61910        0.31169
N         -3.75491       -3.42772        0.19255
N         -3.88051       -2.10016        0.06095
C         -2.70761       -1.42667        0.07658
C         -2.65399        0.04602       -0.00200
C         -1.74845        0.77014        0.78130
C         -1.64211        2.14845        0.69868
Cl        -0.48414        2.99559        1.66448
C         -2.47960        2.86049       -0.16803
O         -2.35025        4.20124       -0.22284
C         -3.41436        2.16077       -0.92906
C         -3.50506        0.77429       -0.84711
O         -4.42522        0.07939       -1.57075
H          7.82904        0.14298       -0.05428
H          6.91658       -1.29290       -0.59412
H          6.76105       -0.73488        1.07584
H          3.55859        1.86312       -0.99096
H          1.19585        1.09495       -0.93031
H          2.49459       -2.77214        0.42045
H          4.83154       -1.99472        0.37082
H         -0.28105       -0.58406       -0.67963
H         -2.04415       -4.61200        0.43725
H         -4.79182       -1.69862       -0.09852
H         -1.10234        0.24082        1.47539
H         -2.98343        4.56447       -0.85523
H         -4.08102        2.70794       -1.59471
H         -4.90819        0.68284       -2.14983
