36
omegapdb_1qxw_16.log	Energy: -410434.1047151
C         -3.50295       -2.25780        0.48556
C         -4.02878       -1.27738       -0.53419
C         -2.54705       -1.50731       -0.38154
N         -1.67646       -0.51818        0.19822
C         -1.47020        0.63436       -0.67084
C         -0.50888        1.62728       -0.01974
C          0.89780        1.05125        0.31231
N          0.80678        0.32723        1.58466
C          1.51897        0.29915       -0.86738
C          3.00338       -0.05858       -0.69465
C          3.26635       -1.40734       -0.01901
C          4.75556       -1.71232        0.11837
O         -0.38555        2.68912       -0.93492
O         -1.07291        2.11241        1.17395
H         -3.56320       -1.97282        1.53382
H         -3.64072       -3.32064        0.30956
H         -4.42964       -0.33747       -0.16152
H         -4.53417       -1.66432       -1.41474
H         -2.06108       -2.07236       -1.17589
H         -2.07787       -0.17605        1.06898
H         -1.05889        0.29055       -1.62624
H         -2.40038        1.18091       -0.89139
H          1.51686        1.93931        0.51062
H          1.72654        0.16695        1.98148
H          0.35553       -0.57133        1.42164
H          1.39553        0.93694       -1.75127
H          0.94352       -0.61892       -1.05282
H          3.48411       -0.07981       -1.68174
H          3.51486        0.73948       -0.13433
H          2.79235       -1.43778        0.97026
H          2.78028       -2.19787       -0.60691
H          4.92513       -2.68701        0.58788
H          5.24527       -1.72333       -0.86258
H          5.25931       -0.95391        0.72955
H         -0.16844        3.46461       -0.39930
H         -0.55458        1.67146        1.87925
