57
omegacsd_SPIRIL_08.log	Energy: -797192.8959481
C          2.02779       -0.10848        0.69756
C          2.62415        0.76783       -0.40634
C          2.76150        2.22628        0.06368
O          1.93416        2.87042        0.67775
N          3.97067        2.66786       -0.39350
C          4.59834        1.68163       -1.26498
N          3.99479        0.41225       -0.87228
C          4.82527       -0.36339        0.01307
C          5.42735        0.17555        1.15492
C          6.24229       -0.61569        1.95786
C          6.46211       -1.95230        1.63496
C          5.87011       -2.49163        0.49742
C          5.06204       -1.69797       -0.31212
C          1.66378        0.77948       -1.61601
C          1.29905       -0.64598       -2.04350
N          0.73743       -1.46749       -0.98901
C         -0.69821       -1.45803       -0.80104
C         -1.34753       -0.27494       -0.05714
C         -2.84219       -0.44607        0.01798
C         -3.75728        0.51158        0.21717
C         -5.21000        0.17522        0.22629
C         -5.73133       -0.80018       -0.63279
C         -7.08075       -1.13086       -0.62402
C         -7.92258       -0.46451        0.25155
C         -7.45356        0.51864        1.10674
C         -6.09981        0.83449        1.08284
F         -9.23297       -0.77287        0.26311
C         -3.39573        1.95457        0.47097
C          1.56881       -1.48957        0.20139
H          2.74105       -0.22906        1.52016
H          1.18020        0.46175        1.09460
H          4.15553        3.65872       -0.44951
H          5.68168        1.64904       -1.12511
H          4.38690        1.89947       -2.32228
H          5.25245        1.21779        1.41318
H          6.70339       -0.18612        2.84372
H          7.09652       -2.56927        2.26595
H          6.04451       -3.53126        0.23212
H          4.60954       -2.09861       -1.21561
H          2.12976        1.31012       -2.45668
H          0.76788        1.34432       -1.33385
H          0.59445       -0.62033       -2.88277
H          2.21710       -1.13128       -2.40767
H         -1.15911       -1.54229       -1.79467
H         -0.96793       -2.37957       -0.26333
H         -1.09333        0.66774       -0.55531
H         -0.92673       -0.21129        0.95684
H         -3.19818       -1.47336       -0.08467
H         -5.06871       -1.29480       -1.33818
H         -7.48777       -1.88178       -1.29400
H         -8.14411        1.02185        1.77631
H         -5.73173        1.60276        1.75770
H         -4.02201        2.62818       -0.12462
H         -3.54914        2.21795        1.52519
H         -2.34766        2.16155        0.24214
H          2.45675       -2.10260       -0.00716
H          1.02023       -1.99957        1.00224
