61
omegapdb_1v2k_01.log	Energy: -1425435.4754881
N         -9.45980        0.28607        2.03113
C         -8.80493        1.26464        1.39752
C         -7.67238        1.08496        0.62225
C         -7.13612       -0.20578        0.46413
C         -7.81634       -1.23606        1.13028
C         -8.94845       -0.93406        1.87798
N         -6.02214       -0.43329       -0.34428
C         -5.59879       -1.81418       -0.55538
C         -4.68584       -1.92842       -1.77714
C         -3.51129       -0.94244       -1.78693
C         -4.04282        0.47217       -1.48905
C         -4.89342        0.48604       -0.22313
C         -2.43107       -1.34171       -0.78083
O         -2.66762       -2.12251        0.13201
N         -1.19294       -0.75931       -0.90602
C         -0.14716       -1.11521        0.04082
C          0.54264        0.13703        0.56547
N          1.04785        0.91420       -0.57343
C         -0.02765        1.31302       -1.48990
C         -0.71777        0.05720       -2.01125
S          2.07500        2.17767       -0.14783
O          1.58013        2.85742        1.04242
O          2.32454        2.91698       -1.37485
C          3.55170        1.30402        0.31313
C          4.40012        0.87454       -0.67196
C          5.58621        0.18194       -0.32451
C          5.87357       -0.05250        1.04592
C          4.97321        0.42480        2.03653
C          3.83459        1.09701        1.68435
C          7.05940       -0.75195        1.39540
C          7.90583       -1.18537        0.41393
C          7.63457       -0.95363       -0.95754
C          6.49783       -0.28329       -1.31159
Cl         9.35635       -2.04318        0.83520
H         -9.22122        2.26520        1.51053
H         -7.23533        1.94200        0.11999
H         -7.46891       -2.26215        1.09776
H         -9.47051       -1.73819        2.39631
H         -6.48941       -2.41934       -0.74714
H         -5.08831       -2.21842        0.32996
H         -5.28501       -1.73478       -2.67560
H         -4.31512       -2.95640       -1.84029
H         -3.07575       -0.95651       -2.79312
H         -4.66214        0.80200       -2.33189
H         -3.22328        1.19284       -1.37682
H         -5.26213        1.49756       -0.04904
H         -4.27331        0.21172        0.64837
H          0.59409       -1.75958       -0.45274
H         -0.60947       -1.67338        0.85526
H         -0.15315        0.73651        1.17014
H          1.38631       -0.15669        1.19850
H          0.41206        1.87338       -2.31709
H         -0.76360        1.95452       -0.97848
H         -0.00197       -0.52091       -2.61353
H         -1.54314        0.35361       -2.65843
H          4.17106        1.07226       -1.71625
H          5.20707        0.25633        3.08487
H          3.15126        1.49023        2.43120
H          7.28752       -0.93753        2.44116
H          8.33488       -1.31105       -1.70572
H          6.27839       -0.09746       -2.36020
