45
omegacsd_SEYMIS_04.log	Energy: -753204.4703112
O         -1.49145       -1.48065        2.39192
N         -2.58537       -0.68048        2.15300
C         -2.70214       -0.59097        0.85017
C         -1.65929       -1.33156        0.19902
C         -1.40130       -1.54840       -1.25206
O         -2.24187       -1.99270       -2.01772
N         -0.12824       -1.27597       -1.69124
C          0.81407       -0.41688       -1.07658
C          0.56952        0.85811       -0.59675
N          1.71987        1.36191       -0.08743
C          1.83773        2.67840        0.52486
C          2.72107        0.42861       -0.25093
C          2.17883       -0.68919       -0.85816
C          4.09939        0.67643        0.18022
O          4.49235        1.69859        0.70698
O          4.88360       -0.38314       -0.07860
C          6.26836       -0.24580        0.28597
C          7.04294        0.50923       -0.77732
C         -0.94225       -1.85564        1.23151
C          0.27071       -2.71343        1.30781
C         -3.76112        0.27619        0.28584
C         -4.38402       -0.01791       -0.92989
C         -5.38026        0.82236       -1.41857
C         -5.76327        1.95270       -0.70374
C         -5.14819        2.24458        0.51134
C         -4.15169        1.41221        1.00381
H         -0.01412       -1.46809       -2.67905
H         -0.35328        1.42374       -0.56976
H          0.85504        3.15257        0.48882
H          2.56334        3.28710       -0.01610
H          2.16757        2.58992        1.56093
H          2.71916       -1.59084       -1.11400
H          6.33114        0.25726        1.25422
H          6.62388       -1.27369        0.38847
H          6.93698        0.02131       -1.75105
H          6.68202        1.53840       -0.85323
H          8.10640        0.53492       -0.51741
H          0.14373       -3.47998        2.07715
H          0.45234       -3.19493        0.34451
H          1.14993       -2.10976        1.55777
H         -4.08918       -0.90436       -1.48341
H         -5.86219        0.58641       -2.36387
H         -6.54118        2.60591       -1.09135
H         -5.44401        3.12523        1.07581
H         -3.66700        1.62971        1.95142
