24
omegapdb_1gs5_14.log	Energy: -441841.5620522
C         -0.68778        0.49201        0.26583
C         -0.69752        1.98553        0.00827
O         -1.52070        2.56668       -0.65885
O          0.33597        2.61510        0.59280
C          0.53690       -0.19495       -0.37392
C          1.80793       -0.07982        0.45764
C          2.99238       -0.72767       -0.23712
O          2.97399       -1.15754       -1.35852
O          4.12939       -0.78236        0.49532
N         -1.92898       -0.03699       -0.24722
C         -2.40456       -1.22752        0.21083
O         -1.77360       -1.90419        1.01012
C         -3.74914       -1.65786       -0.33474
H         -0.65711        0.32304        1.35043
H          0.25812        3.55285        0.34803
H          0.28354       -1.25287       -0.47843
H          0.70925        0.19173       -1.38403
H          1.65932       -0.56176        1.43431
H          2.05954        0.96927        0.65822
H          3.97558       -0.40950        1.37434
H         -2.48293        0.57248       -0.83196
H         -3.63603       -2.63577       -0.80986
H         -4.44550       -1.77612        0.49991
H         -4.17058       -0.95432       -1.05814
