44
omegacsd_CUHNEY10_11.log	Energy: -1049278.4014515
Cl        -4.15186       -3.36189       -0.46243
C         -2.52445       -2.79462       -0.27299
C         -2.12154       -1.61784       -0.88575
N         -0.88774       -1.13197       -0.76749
C         -0.00386       -1.81319       -0.04252
N          1.27895       -1.23666        0.01096
C          2.42842       -1.83570        0.53087
O          2.51020       -2.90741        1.08435
C          3.53345       -0.87211        0.22967
N          4.81805       -1.01302        0.53091
C          5.56541        0.01878        0.13746
C          5.03358        1.13759       -0.51894
N          3.73740        1.26331       -0.81208
C          3.01001        0.22388       -0.42732
C          1.51990        0.07050       -0.59557
O          0.83702        1.06448        0.13854
C          0.14275        1.98169       -0.60867
O          0.20777        2.04317       -1.81845
N         -0.58354        2.80676        0.18510
C         -1.45345        3.79555       -0.44783
C         -2.80141        3.83011        0.30247
N         -3.22301        2.51927        0.76361
C         -2.27983        1.97362        1.74548
C         -0.85978        2.55297        1.59094
C         -3.52884        1.60980       -0.32854
C         -0.31437       -3.01010        0.61732
C         -1.60297       -3.50066        0.49288
H         -2.81666       -1.04521       -1.49584
H          6.63037       -0.03471        0.35082
H          5.68454        1.95745       -0.81384
H          1.19220        0.10548       -1.63651
H         -0.97918        4.78659       -0.43864
H         -1.58337        3.50172       -1.49154
H         -3.57273        4.24994       -0.35269
H         -2.73622        4.49398        1.17372
H         -2.63906        2.17242        2.76550
H         -2.23988        0.88568        1.61962
H         -0.76888        3.50545        2.12767
H         -0.10909        1.87736        1.99788
H         -4.28600        2.06927       -0.97417
H         -2.66088        1.33662       -0.95557
H         -3.95815        0.68782        0.07909
H          0.43769       -3.53075        1.19409
H         -1.89189       -4.42442        0.98529
