66
omegapdb_1z1r_25.log	Energy: -1302679.4600246
C          0.43229       -2.48490       -1.61791
C          0.20401       -1.48912       -2.78344
C         -0.64790       -0.27580       -2.49630
C         -2.04045       -0.34731       -2.54445
C         -2.83649        0.74456       -2.20291
C         -2.23242        1.93708       -1.80891
C         -0.84140        2.04489       -1.82633
C         -0.06380        0.94880       -2.16164
O         -2.93618        3.03705       -1.40277
C         -3.95103        2.83090       -0.41871
C         -3.39207        2.57879        0.98072
C         -2.71857        1.22073        1.20777
C         -3.69398        0.06760        1.01018
O         -4.90329        0.24801        1.03031
N         -3.19783       -1.20419        0.88493
C         -1.84927       -1.63946        0.59795
C         -1.92970       -2.73011       -0.47895
O         -2.97759       -3.34682       -0.62170
N         -0.81554       -3.12907       -1.17252
C         -1.20013       -2.28264        1.84977
C         -0.76756       -1.23651        2.85701
O          0.31933       -0.66530        2.78047
N         -1.65395       -0.96048        3.83988
C          1.33680       -1.99686       -0.47368
O          0.86597       -0.78780        0.05720
C          2.79172       -1.80766       -0.92810
N          3.60344       -1.39315        0.21200
S          4.54658       -0.01994        0.10940
O          5.02834        0.17178       -1.25178
O          5.47827       -0.14766        1.21822
C          3.37667        1.27727        0.42969
C          2.62428        1.25055        1.60056
C          1.68725        2.25025        1.82144
C          1.52942        3.27666        0.89055
C          2.30615        3.30572       -0.26374
C          3.23497        2.29583       -0.50480
H          0.98794       -3.32342       -2.05902
H         -0.25329       -2.06558       -3.59781
H          1.18585       -1.17149       -3.15539
H         -2.52495       -1.27669       -2.84055
H         -3.91869        0.65603       -2.23290
H         -0.38787        2.98551       -1.52711
H          1.01965        1.03580       -2.11257
H         -4.63122        2.02427       -0.70878
H         -4.52045        3.76427       -0.41704
H         -2.67546        3.37501        1.21638
H         -4.23027        2.66787        1.68032
H         -1.82713        1.10727        0.58442
H         -2.36354        1.16848        2.24642
H         -3.90395       -1.89502        0.64684
H         -1.22634       -0.81820        0.24670
H         -1.08509       -3.90699       -1.76329
H         -1.91901       -2.98607        2.28371
H         -0.30738       -2.84692        1.57145
H         -2.58834       -1.33885        3.82516
H         -1.43697       -0.22232        4.49323
H          1.33411       -2.79184        0.28933
H          1.00451       -0.76119        1.02369
H          3.19731       -2.72436       -1.37514
H          2.84424       -1.02476       -1.69125
H          4.14157       -2.11818        0.67344
H          2.74231        0.43941        2.31357
H          1.07187        2.21359        2.71567
H          0.79309        4.05736        1.06581
H          2.18581        4.11024       -0.98468
H          3.84214        2.28442       -1.40503
