39
omegacsd_FIBREN_04.log	Energy: -667551.5031485
N         -3.26147        1.76937        0.37870
C         -2.07785        2.16904        0.85206
N         -0.95384        1.43713        0.95782
C         -0.96460        0.15776        0.56603
C         -2.16318       -0.36966        0.05032
C         -3.22603        0.50084        0.00089
O         -4.27941       -0.18184       -0.52716
C         -3.77998       -1.43772       -0.76808
N         -2.54225       -1.61188       -0.45091
C         -4.72641       -2.42096       -1.35396
N          0.15146       -0.59816        0.68934
C          1.43717       -0.02981        1.04137
C          2.29975       -1.08683        1.74807
C          2.60227       -2.29283        0.89193
O          1.86696       -2.76175        0.04936
O          3.78856       -2.84373        1.18805
C          2.18515        0.60046       -0.12930
C          3.09838        1.62520        0.12397
C          3.83265        2.19617       -0.90942
C          3.65824        1.74794       -2.21598
C          2.74691        0.73013       -2.47738
C          2.01518        0.15797       -1.44011
C         -1.97503        3.59256        1.32258
H         -5.57696       -2.58164       -0.68418
H         -5.11590       -2.05805       -2.31011
H         -4.20465       -3.36610       -1.50914
H          0.14913       -1.51963        0.26859
H          1.23502        0.76356        1.76721
H          3.24224       -0.64293        2.07942
H          1.77421       -1.45004        2.64041
H          3.87722       -3.62517        0.61640
H          3.22721        1.98949        1.14266
H          4.53561        2.99743       -0.69554
H          4.22612        2.19533       -3.02773
H          2.60113        0.37753       -3.49539
H          1.30391       -0.63545       -1.65328
H         -1.16180        4.10307        0.79778
H         -1.73882        3.61777        2.39146
H         -2.91573        4.11674        1.14695
