25
omegapdb_1m5f_17.log	Energy: -499678.0704598
O         -2.42064        0.42342        1.40827
C         -2.15755        0.66827        0.11161
O         -2.95638        0.49217       -0.77237
C         -0.76666        1.17872       -0.06493
N         -0.56919        2.21058       -0.84352
O          0.77509        2.45027       -0.78903
C          1.37581        1.54893        0.01138
C          0.44336        0.69605        0.52116
C          0.63171       -0.50326        1.40376
C          1.02561       -1.77239        0.62132
N          2.37046       -1.65505        0.08402
C          0.00368       -2.08110       -0.47170
O          0.27671       -2.26027       -1.63274
O         -1.26193       -2.11647       -0.00691
C          2.84831        1.68288        0.18507
H         -3.32399        0.06600        1.43785
H          1.42793       -0.31760        2.13086
H         -0.29187       -0.68668        1.95822
H          1.00713       -2.60936        1.33056
H          2.68318       -2.56848       -0.23396
H          2.32387       -1.09404       -0.76492
H         -1.83539       -2.25344       -0.78119
H          3.08726        2.55624        0.80107
H          3.33626        1.81355       -0.78552
H          3.24823        0.78365        0.65970
