41
omegacsd_CEJTIU_07.log	Energy: -611030.3613506
C          6.56320       -2.09694        0.23788
N          6.32809       -0.66921        0.19416
C          7.37076        0.15454       -0.37928
C          5.01150       -0.22330        0.09606
C          3.92335       -1.07811        0.33780
C          2.60760       -0.63676        0.27388
C          2.32908        0.69096       -0.04680
C          3.39747        1.54913       -0.30168
C          4.71035        1.10811       -0.23852
N          1.02217        1.23335       -0.13892
C         -0.16787        0.58555        0.05438
O         -0.28226       -0.59327        0.33568
N         -1.26427        1.44285       -0.10600
C         -2.63442        1.16654       -0.03486
O         -3.39975        2.09775       -0.16738
C         -3.06268       -0.26747        0.21161
C         -4.55025       -0.47886        0.07883
C         -5.04535       -1.37252       -0.86887
C         -6.41346       -1.60722       -0.98363
C         -7.30402       -0.94555       -0.14655
C         -6.81904       -0.04959        0.80387
C         -5.45348        0.18049        0.91567
H          6.10417       -2.53920        1.12873
H          7.63819       -2.27903        0.30320
H          6.17316       -2.62505       -0.64735
H          7.22503        0.34631       -1.45492
H          7.43239        1.12053        0.13431
H          8.33337       -0.34392       -0.24583
H          4.09107       -2.12119        0.58221
H          1.79652       -1.32612        0.46720
H          3.20735        2.59019       -0.56087
H          5.50082        1.81854       -0.45315
H          0.99074        2.20539       -0.40660
H         -1.10630        2.42896       -0.26900
H         -2.50636       -0.92278       -0.46403
H         -2.70548       -0.54575        1.21102
H         -4.35175       -1.89516       -1.52513
H         -6.78056       -2.30915       -1.72831
H         -8.37274       -1.12485       -0.23346
H         -7.50928        0.47434        1.46043
H         -5.08270        0.88923        1.65178
