24
omegapdb_1gs5_19.log	Energy: -441837.7563698
C          0.82216       -0.55505        0.28509
C          1.71081       -1.77052        0.01533
O          2.63055       -1.75496       -0.76126
O          1.39531       -2.89079        0.68401
C         -0.62391       -0.84707       -0.15137
C         -1.55382        0.33702        0.07570
C         -3.00485       -0.04045       -0.15504
O         -3.38891       -1.15487       -0.39219
O         -3.88534        0.98054       -0.06449
N          1.41101        0.57122       -0.40276
C          1.42340        1.81242        0.16843
O          0.75401        2.08022        1.15591
C          2.32806        2.82322       -0.50228
H          0.83085       -0.33403        1.36224
H          0.64094       -2.73912        1.27109
H         -0.63416       -1.12703       -1.21107
H         -1.02479       -1.71007        0.39378
H         -1.44125        0.73280        1.09303
H         -1.28666        1.16508       -0.59239
H         -3.41960        1.80369        0.14028
H          2.12320        0.32444       -1.07989
H          2.49720        2.60170       -1.55981
H          3.29580        2.83027        0.01030
H          1.88537        3.81528       -0.39925
