25
omegapdb_1m5f_04.log	Energy: -499682.6382480
O          0.19730        3.30108        0.28814
C          0.41326        2.10313       -0.26134
O          1.43997        1.83103       -0.83234
C         -0.72034        1.13863       -0.12082
N         -1.81178        1.55562        0.46891
O         -2.66950        0.50136        0.46182
C         -2.08035       -0.55472       -0.13828
C         -0.82412       -0.21545       -0.54635
C          0.18322       -1.08264       -1.24341
C          1.10950       -1.83852       -0.26275
N          0.31928       -2.60329        0.68879
C          2.01506       -0.81674        0.40857
O          1.76971       -0.30203        1.47606
O          3.07625       -0.50599       -0.34442
C         -2.88151       -1.80466       -0.23828
H         -0.68758        3.30733        0.69620
H         -0.34229       -1.83587       -1.83872
H          0.79119       -0.47419       -1.91913
H          1.72950       -2.51978       -0.85378
H          0.02487       -1.96425        1.42603
H          0.91228       -3.29033        1.14635
H          3.47028        0.29531        0.04022
H         -3.58948       -1.86433        0.59231
H         -3.45031       -1.83292       -1.17413
H         -2.20912       -2.66528       -0.19730
