50
omegapdb_1xom_10.log	Energy: -710685.9600533
O          6.23034        1.79842       -0.42804
C          5.55052        0.68008       -0.75475
O          6.09635       -0.39022       -0.88305
C          4.06975        0.95543       -0.90271
C          3.31138       -0.29794       -1.36983
C          2.84929       -1.12598       -0.17470
C          1.78770       -0.35309        0.68188
C          2.01768        1.17411        0.53287
C          3.50720        1.49305        0.43884
C          2.03026       -0.69435        2.10091
N          2.24675       -0.95588        3.20764
C          0.35759       -0.79786        0.33327
C         -0.00648       -2.12534        0.54901
C         -1.27780       -2.59291        0.23085
C         -2.22695       -1.73159       -0.31527
O         -3.48580       -2.09138       -0.67829
C         -3.84996       -3.44577       -0.51210
C         -1.88197       -0.38410       -0.51503
C         -0.60854        0.06357       -0.19021
O         -2.76466        0.48999       -1.08837
C         -3.87183        0.87708       -0.27399
C         -4.86889        1.65474       -1.12808
C         -5.67701        2.50262       -0.12193
C         -4.87695        2.46152        1.20871
C         -3.51533        1.85812        0.84270
H          7.15842        1.52946       -0.32642
H          3.97413        1.74753       -1.65627
H          3.96255       -0.90444       -2.00499
H          2.44578       -0.00625       -1.97682
H          3.72363       -1.36618        0.44075
H          2.42338       -2.07793       -0.50292
H          1.54685        1.70405        1.36717
H          1.53226        1.52283       -0.38409
H          3.68117        2.56993        0.51304
H          4.03120        1.03742        1.28949
H          0.71002       -2.81890        0.98476
H         -1.51491       -3.63616        0.41054
H         -3.80938       -3.74681        0.54261
H         -4.87644       -3.52783       -0.87230
H         -3.20445       -4.10771       -1.10320
H         -0.41443        1.11603       -0.36781
H         -4.34274       -0.02075        0.14664
H         -4.28984        2.29352       -1.80543
H         -5.48857        0.99851       -1.74577
H         -6.68547        2.10088        0.01974
H         -5.79762        3.52797       -0.48518
H         -5.38501        1.81418        1.93315
H         -4.78381        3.44649        1.67587
H         -3.00373        1.38896        1.68949
H         -2.84825        2.62358        0.42380
