61
omegapdb_1v2k_09.log	Energy: -1425432.0838685
N          9.83363        1.15339        0.53211
C          9.32823        0.11725       -0.14501
C          7.97963       -0.09409       -0.37487
C          7.03861        0.82286        0.12551
C          7.56222        1.91034        0.83913
C          8.93873        2.02061        1.00110
N          5.67233        0.66050       -0.11814
C          5.11172       -0.67562        0.06079
C          3.78103       -0.82829       -0.66856
C          2.78452        0.24360       -0.20469
C          3.42102        1.61908       -0.39015
C          4.76876        1.71584        0.31951
C          1.47354        0.15643       -0.98377
O          1.19192        0.98156       -1.84193
N          0.62719       -0.89104       -0.72977
C          0.79107       -1.90549        0.30252
C         -0.55499       -2.23377        0.93665
N         -1.44974       -2.77576       -0.09086
C         -1.17835       -2.36373       -1.47353
C         -0.59214       -0.96108       -1.53661
S         -3.01383       -3.07945        0.36722
O         -2.93235       -3.68570        1.68421
O         -3.65715       -3.73084       -0.75964
C         -3.78782       -1.48782        0.57389
C         -4.44028       -0.91386       -0.48576
C         -5.01233        0.37694       -0.34985
C         -4.89966        1.05554        0.89113
C         -4.23155        0.41812        1.97205
C         -3.68807       -0.82835        1.82487
C         -5.46928        2.34878        1.02915
C         -6.11613        2.92143       -0.03006
C         -6.23918        2.25475       -1.27385
C         -5.69778        1.00868       -1.42299
Cl        -6.81410        4.50398        0.13192
H         10.05451       -0.59229       -0.53999
H          7.67307       -0.94848       -0.96947
H          6.92144        2.66150        1.28643
H          9.34104        2.86674        1.55758
H          4.96267       -0.88119        1.13772
H          5.81683       -1.42055       -0.30987
H          3.39497       -1.83982       -0.49414
H          3.94344       -0.71811       -1.74795
H          2.58991        0.09511        0.86797
H          2.75410        2.40156       -0.01299
H          3.55346        1.80531       -1.46014
H          5.21883        2.68147        0.07527
H          4.62538        1.68526        1.41668
H          1.23567       -2.82429       -0.10587
H          1.45747       -1.53962        1.08580
H         -0.43097       -2.97740        1.72754
H         -0.96443       -1.31456        1.38416
H         -2.10456       -2.41675       -2.04963
H         -0.48559       -3.08380       -1.92530
H         -1.32491       -0.22198       -1.18385
H         -0.34287       -0.69791       -2.56770
H         -4.54341       -1.45611       -1.42265
H         -4.16969        0.93276        2.92789
H         -3.21041       -1.33660        2.65708
H         -5.38907        2.87563        1.97579
H         -6.76140        2.74327       -2.09032
H         -5.78674        0.48577       -2.37217
