39
omegacsd_FIBREN_17.log	Energy: -667539.2049983
N         -2.66991        0.42879        1.97230
C         -1.35480        0.64963        2.04539
N         -0.48034        0.69150        1.02170
C         -0.91830        0.48702       -0.22251
C         -2.28912        0.24536       -0.41533
C         -3.06064        0.23858        0.72258
O         -4.34023       -0.02114        0.33584
C         -4.25995       -0.16056       -1.02680
N         -3.08039       -0.01668       -1.53007
C         -5.53127       -0.45672       -1.73444
N         -0.05978        0.53319       -1.27728
C          1.39772        0.46327       -1.15703
C          1.94292        1.77039       -0.55403
C          3.45923        1.85755       -0.55655
O          4.13833        1.92597        0.43160
O          4.04474        1.85588       -1.77965
C          1.86584       -0.81689       -0.46923
C          2.40438       -0.84009        0.81607
C          2.79244       -2.04752        1.39216
C          2.64068       -3.24158        0.69700
C          2.10290       -3.22710       -0.58756
C          1.72297       -2.02128       -1.16266
C         -0.76589        0.86986        3.40920
H         -5.97311       -1.38405       -1.35729
H         -5.32892       -0.55866       -2.80130
H         -6.25580        0.34824       -1.57718
H         -0.46273        0.22463       -2.15039
H          1.74260        0.40148       -2.19842
H          1.53253        2.60415       -1.13780
H          1.59388        1.88355        0.47195
H          3.37151        1.85841       -2.47350
H          2.54123        0.08231        1.37139
H          3.21883       -2.04948        2.39188
H          2.94522       -4.18103        1.15105
H          1.98528       -4.15441       -1.14237
H          1.30573       -2.01528       -2.16947
H         -0.29691        1.85760        3.46279
H         -1.54033        0.79189        4.17366
H          0.01646        0.12784        3.59852
