50
omegapdb_1xom_05.log	Energy: -710692.0775365
O          6.24163       -0.53095        0.33634
C          5.43364       -1.53113       -0.07468
O          5.85587       -2.63046       -0.34221
C          3.98769       -1.09882       -0.15407
C          3.46184       -0.63770        1.21417
C          1.99183       -0.22798        1.12366
C          1.74061        0.87488        0.06276
C          2.32852        0.42295       -1.29906
C          3.79768        0.01155       -1.20018
C          2.47754        2.08306        0.48943
N          3.08086        3.01190        0.82489
C          0.24604        1.18812       -0.05253
C         -0.29016        2.43081        0.25764
C         -1.65996        2.67699        0.14293
C         -2.52556        1.67559       -0.28303
O         -3.86710        1.81244       -0.42216
C         -4.42878        3.06718       -0.10045
C         -1.99202        0.41171       -0.60295
C         -0.63214        0.18586       -0.48568
O         -2.81667       -0.57138       -1.08070
C         -3.22953       -1.54342       -0.12293
C         -4.29195       -1.06602        0.86726
C         -4.85450       -2.38569        1.39984
C         -4.89823       -3.31499        0.16278
C         -3.89967       -2.71029       -0.85307
H          7.14016       -0.89989        0.35160
H          3.43498       -1.99124       -0.47222
H          4.06754        0.20549        1.56816
H          3.56970       -1.44255        1.95077
H          1.38221       -1.09727        0.84608
H          1.62697        0.11958        2.09639
H          2.20131        1.22746       -2.03145
H          1.73324       -0.42736       -1.65356
H          4.14497       -0.33274       -2.18137
H          4.41419        0.87632       -0.92510
H          0.35719        3.23667        0.59281
H         -2.03690        3.66323        0.39255
H         -4.24716        3.33066        0.94963
H         -5.50212        2.96705       -0.26787
H         -4.03302        3.86102       -0.74668
H         -0.27233       -0.80361       -0.75989
H         -2.34300       -1.89175        0.43141
H         -5.05053       -0.50526        0.30866
H         -3.89259       -0.40889        1.64713
H         -5.83235       -2.26958        1.87709
H         -4.17515       -2.79745        2.15697
H         -5.90603       -3.34083       -0.26422
H         -4.64363       -4.34603        0.42731
H         -3.17005       -3.43454       -1.22732
H         -4.42082       -2.29493       -1.72236
