57
omegacsd_SPIRIL_02.log	Energy: -797199.4682438
C         -2.41677       -0.59138        1.05526
C         -3.27451       -0.97135       -0.17228
C         -3.48027       -2.49065       -0.16408
O         -2.61255       -3.33815       -0.25691
N         -4.80987       -2.72378       -0.02927
C         -5.62478       -1.54185        0.05969
N         -4.65154       -0.47686       -0.07193
C         -5.06832        0.84607        0.01543
C         -4.17990        1.93731       -0.05475
C         -4.65004        3.24087        0.03413
C         -6.00438        3.51513        0.19376
C         -6.88873        2.44621        0.26187
C         -6.43687        1.13465        0.17521
C         -2.60464       -0.57278       -1.50529
C         -1.10234       -0.84181       -1.52301
N         -0.45649       -0.21382       -0.37333
C          0.99424       -0.26787       -0.49226
C          1.71455        0.68993        0.46523
C          3.19009        0.74991        0.17289
C          4.15319        0.01487        0.74466
C          5.57404        0.16978        0.31738
C          6.61867        0.06749        1.24364
C          7.94575        0.23075        0.86311
C          8.22877        0.48838       -0.46778
C          7.22770        0.57963       -1.42117
C          5.90769        0.41414       -1.02031
F          9.51086        0.64270       -0.84734
C          3.88964       -0.98378        1.84708
C         -0.92868       -0.86021        0.84843
H         -2.77962       -1.14724        1.92881
H         -2.55452        0.46946        1.27723
H         -5.17642       -3.66204        0.00340
H         -6.37483       -1.50949       -0.74620
H         -6.15881       -1.49216        1.02281
H         -3.11511        1.78121       -0.17791
H         -3.93248        4.05599       -0.02284
H         -6.36115        4.53855        0.26343
H         -7.95409        2.62567        0.38620
H         -7.16744        0.33412        0.23154
H         -2.77285        0.49106       -1.68893
H         -3.09262       -1.11579       -2.32395
H         -0.91175       -1.92887       -1.54823
H         -0.68094       -0.40872       -2.43778
H          1.25456        0.01680       -1.51967
H          1.38164       -1.29571       -0.34592
H          1.54114        0.39793        1.50609
H          1.27042        1.68451        0.34246
H          3.48399        1.46229       -0.59867
H          6.39738       -0.13025        2.28921
H          8.75675        0.16229        1.58138
H          7.48899        0.76288       -2.45871
H          5.11850        0.45387       -1.76646
H          2.82791       -1.22379        1.93977
H          4.43057       -1.91763        1.65920
H          4.22764       -0.60485        2.82008
H         -0.38596       -0.45074        1.70663
H         -0.73764       -1.94785        0.81907
