36
omegapdb_1qxw_18.log	Energy: -410432.0536928
C         -4.81004        0.53400        0.00604
C         -4.39463       -0.88217        0.29030
C         -3.36437        0.21115        0.23642
N         -2.50232        0.23446       -0.91283
C         -1.42576       -0.73572       -0.91784
C         -0.21890       -0.50792        0.01327
C          0.61829        0.74198       -0.33982
N         -0.21748        1.92572       -0.12165
C          1.97036        0.78263        0.40724
C          3.13513        0.11561       -0.32987
C          4.44271        0.15860        0.45921
C          5.60439       -0.49065       -0.28852
O          0.54264       -1.68932       -0.12301
O         -0.60040       -0.34514        1.36526
H         -5.34726        1.08086        0.77591
H         -5.09088        0.77136       -1.01533
H         -4.40861       -1.57917       -0.54300
H         -4.64911       -1.31472        1.25416
H         -2.95147        0.53424        1.19560
H         -2.10293        1.16455       -1.01652
H         -1.02750       -0.82493       -1.93634
H         -1.83869       -1.72066       -0.66120
H          0.82201        0.67915       -1.41759
H          0.32116        2.76443       -0.31940
H         -0.47339        1.95925        0.86267
H          1.84902        0.35497        1.41385
H          2.23082        1.83756        0.57133
H          3.27911        0.62145       -1.29599
H          2.88629       -0.92412       -0.57798
H          4.30040       -0.34301        1.42680
H          4.69017        1.20357        0.69251
H          5.78461        0.01157       -1.24630
H          6.53187       -0.44628        0.29201
H          5.39356       -1.54492       -0.50318
H          1.21396       -1.66581        0.57285
H         -1.25558       -1.03001        1.55994
