34
omegapdb_2f7p_14.log	Energy: -719057.2582759
C         -0.96847        0.09714       -0.85537
N          0.47625        0.11628       -0.83864
C          1.15141       -0.10175        0.43715
C          2.65395       -0.11467        0.25306
C          3.48957        0.47044        1.20385
C          4.87348        0.42933        1.05782
C          5.43865       -0.19277       -0.05051
C          4.61141       -0.77368       -1.00859
C          3.22962       -0.73591       -0.85736
C         -1.64182       -1.27053       -0.67705
O         -1.30385       -1.98496        0.50595
C         -3.12653       -0.88096       -0.59989
O         -3.93218       -1.91700       -0.08385
C         -3.11139        0.34548        0.35098
O         -3.12450       -0.13948        1.68935
C         -1.74491        1.02638        0.12267
S         -1.77215        2.76536       -0.39073
H         -1.25030        0.40260       -1.87414
H          0.79865        0.99401       -1.23693
H          0.82017       -1.06993        0.82551
H          0.89867        0.65534        1.20107
H          3.05205        0.96658        2.06871
H          5.51017        0.89127        1.80843
H          6.51879       -0.22207       -0.17025
H          5.04576       -1.25929       -1.87924
H          2.57766       -1.18046       -1.60458
H         -1.40572       -1.94152       -1.50711
H         -1.60032       -1.44032        1.25898
H         -3.50518       -0.59549       -1.58892
H         -3.30639       -2.56894        0.27537
H         -3.95600        1.02593        0.18735
H         -3.83860       -0.79974        1.70194
H         -1.24657        1.05565        1.09736
H         -2.33789        2.56727       -1.59353
