24
omegapdb_1gs5_05.log	Energy: -441847.5700287
C          0.69162        0.49332       -0.27589
C          0.69339        1.98066        0.01735
O          1.47769        2.53791        0.74972
O         -0.29554        2.63314       -0.61458
C         -0.53427       -0.21635        0.33442
C         -1.82747       -0.00260       -0.44220
C         -2.98537       -0.72467        0.19809
O         -2.95525       -1.32681        1.24437
O         -4.10800       -0.61725       -0.54168
N          1.92821       -0.04034        0.24558
C          2.42613       -1.21648       -0.22451
O          1.82607       -1.88300       -1.05518
C          3.75918       -1.64607        0.35079
H          0.67515        0.34744       -1.36362
H         -0.22488        3.56454       -0.34488
H         -0.65958        0.08616        1.38017
H         -0.29834       -1.28394        0.33964
H         -1.73006       -0.36532       -1.47293
H         -2.09412        1.05706       -0.51972
H         -4.79452       -1.10407       -0.05661
H          2.45521        0.55214        0.87124
H          4.16328       -0.94398        1.08547
H          3.63724       -2.62548        0.82089
H          4.47418       -1.76101       -0.46828
