35
omegacsd_DIAVER_00.log	Energy: -548603.5651941
N          4.24281        0.45198       -1.02029
C          4.40130        0.39970        0.30604
N          3.51877       -0.05148        1.20788
C          2.37258       -0.52994        0.72679
C          2.08656       -0.56227       -0.65919
C          3.08094       -0.03877       -1.46168
C          0.81149       -1.14943       -1.20448
C         -0.46064       -0.43144       -0.77919
C         -1.59541       -1.17599       -0.41613
C         -2.77994       -0.55242       -0.04992
C         -2.84904        0.85969       -0.03599
C         -1.72679        1.59407       -0.38840
C         -0.53961        0.95125       -0.75489
O         -4.04405        1.38257        0.33996
C         -4.15083        2.78763        0.37668
O         -3.91796       -1.19465        0.31522
C         -3.89710       -2.60415        0.31437
N          1.48592       -1.03341        1.64105
N          5.59994        0.83601        0.79918
H          2.93765       -0.01295       -2.54385
H          0.73462       -2.20424       -0.90500
H          0.87411       -1.15172       -2.30099
H         -1.53582       -2.26087       -0.43296
H         -1.75919        2.67870       -0.37977
H          0.33109        1.54704       -1.01832
H         -3.44291        3.22662        1.09242
H         -3.98262        3.23152       -0.61352
H         -5.17055        3.00336        0.69939
H         -4.89347       -2.91981        0.62750
H         -3.15381       -2.99655        1.02129
H         -3.68752       -3.00415       -0.68645
H          1.70194       -0.79729        2.59899
H          0.50491       -1.00738        1.39948
H          5.63080        1.05048        1.78285
H          6.15362        1.40466        0.17864
