50
omegapdb_1xom_03.log	Energy: -710694.0056786
O         -6.04722       -0.34887       -0.10905
C         -5.21873       -1.38625        0.13418
O         -5.62800       -2.50869        0.31094
C         -3.76777       -0.96395        0.15389
C         -3.33263       -0.39406       -1.20551
C         -1.85650        0.00334       -1.18436
C         -1.52302        1.01318       -0.05537
C         -2.02269        0.45482        1.30230
C         -3.49827        0.05581        1.27166
C         -2.27862        2.25329       -0.33185
N         -2.90162        3.20468       -0.54627
C         -0.02206        1.31561       -0.00961
C          0.49127        2.58811       -0.18102
C          1.87337        2.81237       -0.13731
C          2.75420        1.76676        0.07586
O          4.10444        1.87608        0.13318
C          4.65451        3.16446       -0.03027
C          2.24148        0.45808        0.25407
C          0.87242        0.25239        0.21090
O          3.17294       -0.50266        0.46408
C          2.74482       -1.85315        0.64855
C          2.27881       -2.48570       -0.68472
C          3.45068       -3.37090       -1.17202
C          4.64925       -2.95679       -0.30709
C          3.99784       -2.63488        1.03920
H         -6.94689       -0.71528       -0.10182
H         -3.20220       -1.88135        0.35853
H         -3.49713       -1.13698       -1.99487
H         -3.95425        0.47658       -1.44834
H         -1.55819        0.43125       -2.14754
H         -1.23866       -0.88979       -1.02790
H         -1.84015        1.19920        2.08491
H         -1.40927       -0.42131        1.54745
H         -3.78006       -0.36744        2.24293
H         -4.12560        0.94127        1.11183
H         -0.17108        3.43101       -0.35624
H          2.24473        3.82228       -0.27577
H          4.41340        3.58309       -1.01623
H          4.30307        3.85374        0.74874
H          5.73525        3.04286        0.05620
H          0.48728       -0.75376        0.34114
H          1.97667       -1.87667        1.43268
H          2.04595       -1.69362       -1.40326
H          1.36230       -3.07057       -0.54531
H          3.64039       -3.25590       -2.24345
H          3.22021       -4.42870       -0.99697
H          5.41734       -3.73375       -0.24177
H          5.11669       -2.05080       -0.70936
H          4.62707       -2.05800        1.72234
H          3.69695       -3.56215        1.54378
