57
omegacsd_SPIRIL_05.log	Energy: -797197.9993884
C         -2.04721        0.96787        1.26526
C         -2.83072        1.16057       -0.05321
C         -2.97051        2.66687       -0.32070
O         -2.06477        3.47144       -0.43706
N         -4.29287        2.94838       -0.41208
C         -5.16171        1.81285       -0.26998
N         -4.23719        0.74433        0.05478
C         -4.73236       -0.54870        0.18540
C         -6.11933       -0.77522        0.09705
C         -6.65073       -2.05141        0.24035
C         -5.83092       -3.14813        0.47383
C         -4.45926       -2.93665        0.56360
C         -3.91261       -1.66785        0.42437
C         -2.10128        0.52068       -1.25821
C         -0.59235        0.82313       -1.25613
N          0.07177        0.49432       -0.00014
C          0.23344       -0.92948        0.25499
C          1.33131       -1.56794       -0.60690
C          2.67178       -0.92617       -0.38572
C          3.86878       -1.52497       -0.32621
C          5.09871       -0.71646       -0.08004
C          5.07205        0.42078        0.73751
C          6.21037        1.18650        0.95533
C          7.39754        0.80111        0.35348
C          7.47435       -0.32479       -0.44837
C          6.32348       -1.07752       -0.65416
F          8.50733        1.53432        0.56319
C          4.07634       -3.00671       -0.53145
C         -0.54228        1.23762        1.09238
H         -2.20275       -0.04911        1.63772
H         -2.46273        1.63952        2.02664
H         -4.61551        3.88126       -0.61580
H         -5.89655        1.96736        0.53466
H         -5.71546        1.61040       -1.20222
H         -6.80367        0.04731       -0.08275
H         -7.72772       -2.18136        0.16460
H         -6.25000       -4.14378        0.58505
H         -3.78979       -3.77368        0.74767
H         -2.83881       -1.55937        0.50940
H         -2.55198        0.89170       -2.18770
H         -2.27058       -0.56030       -1.24852
H         -0.43921        1.89109       -1.44081
H         -0.11144        0.28139       -2.07777
H         -0.69889       -1.50935        0.11609
H          0.51359       -1.04293        1.30988
H          1.35319       -2.64147       -0.38809
H          1.05448       -1.48581       -1.66808
H          2.62261        0.15742       -0.28448
H          4.14390        0.70074        1.22855
H          6.19209        2.06520        1.59257
H          8.42242       -0.59780       -0.90117
H          6.38437       -1.95821       -1.28819
H          3.14352       -3.56869       -0.44598
H          4.78599       -3.40785        0.20071
H          4.48657       -3.21595       -1.52767
H         -0.01850        0.99317        2.02387
H         -0.39001        2.30367        0.89682
