41
omegacsd_CEJTIU_02.log	Energy: -611038.9478105
C         -6.58844       -1.65573       -0.17422
N         -6.07927       -0.30983       -0.01766
C         -6.88340        0.75906       -0.56999
C         -4.69416       -0.13554        0.01640
C         -3.82125       -1.21603        0.22237
C         -2.44352       -1.04852        0.29215
C         -1.88241        0.21939        0.14657
C         -2.73519        1.30068       -0.07263
C         -4.10945        1.13281       -0.14162
N         -0.49581        0.49016        0.20482
C          0.50318       -0.41004        0.34284
O          0.40528       -1.61903        0.44981
N          1.80903        0.15587        0.36385
C          2.20248        1.46293        0.26595
O          1.42668        2.39983        0.13484
C          3.70339        1.71656        0.38440
C          4.60731        0.55632        0.04565
C          4.93432        0.28259       -1.28517
C          5.74049       -0.80263       -1.60853
C          6.22974       -1.63369       -0.60352
C          5.90997       -1.37188        0.72431
C          5.10401       -0.28221        1.04557
H         -6.22748       -2.14981       -1.09125
H         -6.30781       -2.27953        0.68145
H         -7.67994       -1.62211       -0.20678
H         -6.78814        1.66961        0.03154
H         -6.61776        1.00652       -1.61116
H         -7.93506        0.46430       -0.54367
H         -4.21240       -2.22139        0.33452
H         -1.80007       -1.90411        0.45253
H         -2.31728        2.29801       -0.19906
H         -4.72372        2.00819       -0.32123
H         -0.19967        1.46052        0.12670
H          2.52231       -0.55804        0.44207
H          3.90632        2.58144       -0.25386
H          3.87257        2.04747        1.41677
H          4.55321        0.92926       -2.07344
H          5.98687       -1.00090       -2.64832
H          6.85941       -2.48257       -0.85628
H          6.28951       -2.01425        1.51453
H          4.86336       -0.07689        2.08746
