36
omegapdb_1qxw_03.log	Energy: -410436.8673073
C         -3.62700       -2.13388        0.12314
C         -4.74140       -1.12594        0.15228
C         -3.32135       -0.67765        0.32454
N         -2.72735        0.01537       -0.78284
C         -1.28011       -0.05707       -0.88788
C         -0.52799        0.99198       -0.06132
C          0.98949        1.03332       -0.33113
N          1.46831        2.25816        0.31926
C          1.71682       -0.24589        0.09186
C          3.21653       -0.21805       -0.19998
C          3.92448       -1.51589        0.18590
C          5.42252       -1.48128       -0.10512
O         -0.66460        0.76100        1.33853
O         -1.08326        2.23525       -0.38466
H         -3.51365       -2.80768        0.96753
H         -3.36332       -2.55401       -0.84300
H         -5.39986       -1.10302        1.01599
H         -5.21310       -0.88037       -0.79436
H         -3.02472       -0.40166        1.34032
H         -3.02551        0.98519       -0.82106
H         -0.96576       -1.06070       -0.58434
H         -0.99418        0.08392       -1.93938
H          1.11339        1.18124       -1.41255
H          1.50164        2.10653        1.32463
H          2.40278        2.49938        0.00751
H          1.54281       -0.41058        1.16355
H          1.27174       -1.10419       -0.42971
H          3.68717        0.61554        0.34142
H          3.37956       -0.02103       -1.27068
H          3.46237       -2.35386       -0.35352
H          3.75883       -1.71197        1.25400
H          5.91250       -0.67063        0.44740
H          5.90870       -2.42042        0.17880
H          5.61183       -1.31586       -1.17236
H         -1.50685        1.16826        1.58123
H         -0.38208        2.87327       -0.14101
