50
omegapdb_1xom_23.log	Energy: -710682.1587453
O          6.19244       -0.98568       -0.62420
C          5.01959       -1.38631       -0.08172
O          5.01730       -2.01601        0.94220
C          3.77099       -0.98092       -0.86133
C          2.49982       -1.41841       -0.11968
C          2.06382       -0.37510        0.90863
C          1.70905        1.00442        0.25837
C          2.35589        1.10453       -1.15305
C          3.77671        0.54617       -1.14953
C          2.32195        2.06123        1.08934
N          2.83808        2.88769        1.71394
C          0.20287        1.25695        0.14081
C         -0.34530        2.52129        0.31088
C         -1.71188        2.74442        0.13208
C         -2.55756        1.70135       -0.22667
O         -3.89358        1.82241       -0.44126
C         -4.46226        3.10849       -0.30946
C         -2.01509        0.41025       -0.39207
C         -0.65659        0.20955       -0.21231
O         -2.79326       -0.63802       -0.79356
C         -3.76241       -1.11652        0.16403
C         -4.59542       -2.18246       -0.56575
C         -4.04669       -3.55617       -0.10764
C         -2.76146       -3.23650        0.67189
C         -3.06583       -1.87306        1.29662
H          6.03151       -0.48586       -1.43669
H          3.81760       -1.51841       -1.81931
H          2.69612       -2.36500        0.39021
H          1.70221       -1.60121       -0.84888
H          2.88379       -0.24580        1.62351
H          1.20585       -0.73228        1.48587
H          1.72838        0.54579       -1.85672
H          2.34533        2.14932       -1.48008
H          4.25426        0.75909       -2.11414
H          4.36040        1.08041       -0.38744
H          0.28776        3.35702        0.59842
H         -2.10217        3.74678        0.27375
H         -4.02067        3.81518       -1.02349
H         -4.34157        3.49980        0.70884
H         -5.52455        2.99054       -0.52766
H         -0.29041       -0.80292       -0.36225
H         -4.35971       -0.26748        0.50918
H         -4.49061       -2.02640       -1.64300
H         -5.65726       -2.07357       -0.32312
H         -3.87142       -4.23756       -0.94575
H         -4.76743       -4.04633        0.55778
H         -2.50529       -4.00395        1.40905
H         -1.91556       -3.13990       -0.01936
H         -3.77140       -1.98885        2.13036
H         -2.18615       -1.34300        1.67745
