57
omegacsd_SPIRIL_22.log	Energy: -797192.2173279
C         -2.06358       -0.89717       -1.23664
C         -2.96678       -0.92783        0.03466
C         -3.39507       -2.39496        0.24359
O         -2.64921       -3.35467        0.28220
N         -4.73728       -2.41870        0.40298
C         -5.36511       -1.13069        0.29924
N         -4.27969       -0.28160       -0.15632
C         -4.51175        1.09085       -0.20549
C         -5.80492        1.60547       -0.00226
C         -6.04884        2.97212       -0.08250
C         -5.02514        3.86907       -0.36080
C         -3.74368        3.36744       -0.56661
C         -3.48735        2.00524       -0.49375
C         -2.24576       -0.50555        1.35967
C         -0.91437        0.24770        1.19624
N         -0.04636       -0.29217        0.16318
C          0.44719       -1.63618        0.46802
C          1.65312       -2.03221       -0.39154
C          2.79846       -1.06879       -0.25000
C          4.10918       -1.34589       -0.26105
C          5.10751       -0.25196       -0.07727
C          4.84289        0.83986        0.75967
C          5.76097        1.86937        0.92423
C          6.96863        1.79906        0.24868
C          7.28000        0.73093       -0.57520
C          6.34712       -0.28914       -0.72701
F          7.86695        2.79001        0.40671
C          4.67023       -2.73012       -0.48205
C         -0.71124       -0.16402       -1.12441
H         -2.64697       -0.47471       -2.06156
H         -1.85437       -1.93947       -1.49829
H         -5.23310       -3.27724        0.58335
H         -5.77433       -0.80302        1.27112
H         -6.18712       -1.14283       -0.43015
H         -6.63780        0.94494        0.21616
H         -7.06136        3.33416        0.07970
H         -5.22072        4.93568       -0.42028
H         -2.92304        4.04413       -0.79291
H         -2.48297        1.64947       -0.67578
H         -2.04308       -1.41540        1.93610
H         -2.93918        0.09920        1.95549
H         -1.09783        1.30323        0.96182
H         -0.37862        0.22808        2.15306
H         -0.33211       -2.41104        0.37959
H          0.76455       -1.62337        1.51934
H          1.94297       -3.05061       -0.10921
H          1.34707       -2.09612       -1.44629
H          2.48569       -0.03048       -0.14266
H          3.90511        0.87313        1.30783
H          5.55930        2.71316        1.57688
H          8.23793        0.70749       -1.08537
H          6.59234       -1.12397       -1.37823
H          3.90686       -3.50446       -0.37798
H          5.47602       -2.94501        0.22889
H          5.09339       -2.83148       -1.48968
H         -0.04852       -0.53412       -1.91393
H         -0.82601        0.90951       -1.31859
