24
omegapdb_1gs5_15.log	Energy: -441840.9298383
C          0.82111       -0.52912        0.32957
C          1.70394       -1.75832        0.19757
O          1.51550       -2.78478        0.79887
O          2.71128       -1.60746       -0.68822
C         -0.61394       -0.90592       -0.07126
C         -1.60293        0.21126        0.22851
C         -3.01429       -0.15471       -0.18906
O         -3.31731       -1.16504       -0.76497
O         -3.95912        0.76302        0.12172
N          1.34852        0.60351       -0.40504
C          1.32501        1.86091        0.12668
O          0.72679        2.11850        1.16069
C          2.09987        2.90801       -0.64534
H          0.82491       -0.25307        1.39082
H          3.18393       -2.45649       -0.70521
H         -0.89911       -1.81366        0.46901
H         -0.64917       -1.14815       -1.13962
H         -1.31725        1.13362       -0.29309
H         -1.59034        0.46206        1.29723
H         -3.55423        1.50918        0.58598
H          1.93574        0.41232       -1.20271
H          1.56310        3.85652       -0.58683
H          2.25613        2.63965       -1.69420
H          3.07687        3.04673       -0.17091
