50
omegapdb_1xom_00.log	Energy: -710694.8782618
O          5.55612        2.12860       -0.78551
C          5.26575        1.23330        0.18295
O          6.10628        0.80980        0.93895
C          3.79892        0.86247        0.18755
C          3.35222        0.33140       -1.18482
C          1.86928       -0.03912       -1.17090
C          1.51248       -1.05556       -0.05510
C          2.01122       -0.51729        1.31119
C          3.49308       -0.14306        1.29763
C          2.25179       -2.30315       -0.34138
N          2.86301       -3.25942       -0.56783
C          0.00691       -1.33583       -0.02593
C         -0.52495       -2.59554       -0.23195
C         -1.91068       -2.79900       -0.20496
C         -2.77686       -1.74511        0.02670
O         -4.12924       -1.83452        0.07086
C         -4.69746       -3.10967       -0.12993
C         -2.24517       -0.44967        0.24121
C         -0.87286       -0.26424        0.21254
O         -3.16335        0.52001        0.46981
C         -2.71524        1.85693        0.69779
C         -2.23573        2.52312       -0.61377
C         -3.39842        3.42934       -1.08492
C         -4.60297        3.01095       -0.22984
C         -3.95741        2.64554        1.10816
H          6.50951        2.30024       -0.71221
H          3.24838        1.79695        0.37902
H          3.95188       -0.55152       -1.44484
H          3.53878        1.08440       -1.95658
H          1.26858        0.86413       -1.00399
H          1.56502       -0.44844       -2.14033
H          1.40859        0.36623        1.55795
H          1.80844       -1.26446        2.08600
H          4.10974       -1.03806        1.15016
H          3.78202        0.27132        2.26875
H          0.12556       -3.44453       -0.42152
H         -2.29635       -3.79946       -0.37004
H         -4.36364       -3.82356        0.63448
H         -5.77701       -2.97372       -0.04997
H         -4.45361       -3.50705       -1.12400
H         -0.47320        0.73233        0.36953
H         -1.94927        1.84441        1.48431
H         -1.31717        3.09856       -0.45013
H         -2.00085        1.75011       -1.35209
H         -3.58835        3.33656       -2.15845
H         -3.15741        4.48131       -0.89011
H         -5.36006        3.79683       -0.14519
H         -5.08313        2.12210       -0.65455
H         -3.64388        3.55515        1.63672
H         -4.59537        2.06010        1.77573
