34
omegapdb_2f7p_15.log	Energy: -719055.5337042
C         -0.93581       -0.06822       -0.69773
N          0.42853       -0.40335       -0.39072
C          1.35935        0.70783       -0.31953
C          2.78134        0.23422       -0.10463
C          3.23264       -0.96208       -0.66463
C          4.55007       -1.37217       -0.48512
C          5.43439       -0.59081        0.25362
C          4.99161        0.60254        0.81601
C          3.67201        1.00740        0.64022
C         -1.83675       -1.31414       -0.64385
O         -1.56097       -2.15300        0.46787
C         -3.24349       -0.71273       -0.53167
O         -4.25325       -1.63594       -0.25709
C         -3.05910        0.38353        0.53491
O         -3.04448       -0.29036        1.79598
C         -1.66636        0.98333        0.21801
S         -1.70877        2.67273       -0.45530
H         -0.96261        0.31749       -1.72752
H          0.46825       -0.99044        0.43707
H          1.29120        1.25462       -1.27129
H          1.10918        1.44687        0.46336
H          2.53515       -1.56946       -1.23527
H          4.88810       -2.30727       -0.92524
H          6.46329       -0.91264        0.39392
H          5.67235        1.21695        1.40021
H          3.32720        1.93759        1.08928
H         -1.71127       -1.94047       -1.53003
H         -1.81960       -1.66470        1.26936
H         -3.49906       -0.22477       -1.48112
H         -3.89770       -2.22583        0.42361
H         -3.85974        1.13100        0.52172
H         -3.04124        0.37196        2.49810
H         -1.11595        1.09273        1.15993
H         -2.31685        2.36836       -1.61403
