61
omegapdb_1v2k_05.log	Energy: -1425432.8766890
N          9.77030       -0.43112       -1.62021
C          8.82725        0.49943       -1.78599
C          7.53963        0.42928       -1.27829
C          7.15545       -0.69728       -0.52543
C          8.14426       -1.68427       -0.34758
C          9.39941       -1.49524       -0.90402
N          5.89324       -0.82632       -0.00106
C          5.59614       -1.80794        1.03321
C          4.50186       -1.28678        1.96162
C          3.18579       -0.99630        1.22038
C          3.47271       -0.66477       -0.26399
C          4.81113        0.05084       -0.42384
C          2.46271        0.18996        1.86747
O          3.07752        1.03264        2.50635
N          1.10959        0.30513        1.66491
C          0.25802       -0.56311        0.87125
C         -0.43224        0.22533       -0.24070
N         -1.15029        1.35916        0.34644
C         -0.26097        2.25548        1.10396
C          0.40272        1.45330        2.21449
S         -2.17010        2.15073       -0.73361
O         -1.56286        2.19902       -2.05769
O         -2.59549        3.36774       -0.06274
C         -3.54964        1.03417       -0.82350
C         -4.49863        1.08225        0.16225
C         -5.61233        0.20855        0.10885
C         -5.72358       -0.70443       -0.97272
C         -4.72361       -0.71038       -1.98266
C         -3.65690        0.14473       -1.91919
C         -6.83839       -1.58329       -1.02487
C         -7.78504       -1.53748       -0.04027
C         -7.68907       -0.62820        1.04248
C         -6.62326        0.22402        1.10859
Cl        -9.15008       -2.61026       -0.09854
H          9.12163        1.37664       -2.36196
H          6.86107        1.25938       -1.44194
H          7.93662       -2.60384        0.18905
H         10.15973       -2.26431       -0.76820
H          6.50028       -1.97600        1.62648
H          5.31211       -2.78019        0.59673
H          4.84709       -0.36111        2.43052
H          4.33320       -2.01274        2.76429
H          2.54929       -1.88581        1.26765
H          3.49939       -1.59020       -0.85165
H          2.67951       -0.03835       -0.68949
H          4.95472        0.30122       -1.47992
H          4.80159        0.99428        0.14483
H          0.83366       -1.37316        0.42313
H         -0.50783       -1.00903        1.52105
H         -1.14910       -0.42847       -0.74892
H          0.30476        0.57013       -0.98199
H          0.50947        2.69109        0.44905
H         -0.86233        3.06423        1.52229
H          1.12606        2.06655        2.75194
H         -0.36371        1.10115        2.91808
H         -4.40545        1.79717        0.97613
H         -4.82434       -1.39952       -2.81764
H         -2.90256        0.17237       -2.69992
H         -6.93350       -2.28647       -1.84749
H         -8.46429       -0.62181        1.80195
H         -6.53786        0.92911        1.93187
