66
omegapdb_1z1r_22.log	Energy: -1302676.4823793
C          0.40127        0.44665        0.18234
C          0.54047       -0.86630       -0.62801
C         -0.73407       -1.68059       -0.60146
C         -1.31380       -2.08472        0.60486
C         -2.58401       -2.64726        0.63871
C         -3.29493       -2.82590       -0.54832
C         -2.69499       -2.51643       -1.76413
C         -1.42699       -1.94364       -1.78256
O         -4.60130       -3.25596       -0.54841
C         -5.49042       -2.35253        0.11704
C         -5.56505       -1.00813       -0.61474
C         -6.05906        0.16719        0.24647
C         -5.33703        0.26960        1.58380
O         -5.82274       -0.22606        2.59023
N         -4.13003        0.90816        1.64095
C         -3.28228        1.36121        0.56159
C         -1.83375        1.01939        0.97699
O         -1.57750        0.74775        2.14501
N         -0.91017        1.04759       -0.00824
C         -3.45467        2.86582        0.29229
C         -2.95267        3.28749       -1.08149
O         -2.54345        2.48921       -1.91531
N         -3.02439        4.61626       -1.33754
C          1.48724        1.49500       -0.10691
O          1.42244        1.98081       -1.43446
C          2.91503        1.02512        0.23145
N          3.51556        0.35774       -0.92509
S          4.50681       -0.96002       -0.70098
O          4.96627       -1.31663       -2.03026
O          3.77860       -1.88146        0.15435
C          5.91198       -0.38065        0.22552
C          5.90009       -0.47086        1.61453
C          6.98629        0.02084        2.33142
C          8.06528        0.58963        1.66040
C          8.07066        0.66272        0.26898
C          6.99104        0.17493       -0.45793
H          0.45270        0.21002        1.24982
H          0.77668       -0.63766       -1.67554
H          1.39469       -1.43378       -0.23984
H         -0.79624       -1.90003        1.54381
H         -3.03891       -2.91781        1.58785
H         -3.25483       -2.67735       -2.68122
H         -0.98898       -1.65390       -2.73608
H         -6.46062       -2.85616        0.12865
H         -5.18006       -2.21507        1.15943
H         -4.56541       -0.77911       -0.99817
H         -6.21011       -1.10240       -1.49561
H         -5.96497        1.09598       -0.33030
H         -7.11523        0.03697        0.49843
H         -3.63591        0.78854        2.52038
H         -3.50269        0.82453       -0.36551
H         -1.22342        1.27481       -0.94757
H         -4.52400        3.10506        0.35212
H         -2.96209        3.45474        1.07642
H         -3.33660        5.28410       -0.65166
H         -2.69428        4.94954       -2.23043
H          1.25728        2.35964        0.52452
H          1.63917        1.23467       -2.01239
H          3.52851        1.88189        0.53637
H          2.88897        0.31453        1.06344
H          3.91933        0.99205       -1.60687
H          5.06156       -0.94458        2.11663
H          6.99306       -0.04991        3.41549
H          8.91319        0.96940        2.22419
H          8.92215        1.09230       -0.25127
H          6.98891        0.19830       -1.54420
