50
omegapdb_1xom_02.log	Energy: -710693.6880521
O          5.68484        2.42839        0.47773
C          5.46806        1.34256       -0.29542
O          6.36360        0.77865       -0.87624
C          4.00520        0.95853       -0.33150
C          3.78349       -0.26660       -1.21839
C          2.30676       -0.65775       -1.26103
C          1.70669       -0.89880        0.14861
C          1.97575        0.34085        1.04042
C          3.45373        0.72903        1.08553
C          2.42065       -2.04299        0.75369
N          3.00678       -2.92094        1.22804
C          0.20944       -1.20717        0.05943
C         -0.33212       -2.42650        0.44270
C         -1.70181       -2.67601        0.32889
C         -2.55802       -1.70387       -0.17294
O         -3.89800       -1.85414       -0.33796
C         -4.45889       -3.10557       -0.00022
C         -2.02178       -0.45673       -0.55347
C         -0.66242       -0.22892       -0.43738
O         -2.81795        0.51450       -1.09632
C         -3.71158        1.15675       -0.18653
C         -4.64470        2.07628       -0.97113
C         -5.10703        3.14326        0.04693
C         -4.19021        2.97352        1.28697
C         -3.02820        2.09799        0.80548
H          6.64131        2.59461        0.44134
H          3.47268        1.82150       -0.76082
H          4.38645       -1.09914       -0.83556
H          4.14631       -0.06678       -2.23163
H          1.72282        0.14272       -1.73318
H          2.16248       -1.55634       -1.87036
H          1.39216        1.17613        0.63379
H          1.59639        0.14880        2.05002
H          3.58100        1.63438        1.68678
H          4.03121       -0.06662        1.57547
H          0.30941       -3.21078        0.83516
H         -2.08415       -3.64535        0.63107
H         -5.52505       -3.02524       -0.21683
H         -4.32009       -3.33356        1.06441
H         -4.02474       -3.91307       -0.60312
H         -0.30305        0.74508       -0.76072
H         -4.28676        0.39350        0.35333
H         -5.46987        1.52990       -1.43657
H         -4.05618        2.52951       -1.77725
H         -6.15956        3.01321        0.31773
H         -5.01555        4.14765       -0.37837
H         -3.85307        3.92989        1.69798
H         -4.73219        2.45681        2.08824
H         -2.50802        1.57622        1.61558
H         -2.28957        2.69711        0.25570
