44
omegacsd_CUHNEY10_09.log	Energy: -1049278.8650744
Cl        -3.43694        3.84326        0.52423
C         -1.89669        3.06927        0.33815
C         -1.67089        1.82155        0.89925
N         -0.50907        1.18343        0.78048
C          0.47512        1.76598        0.09916
N          1.65831        1.00973        0.02546
C          2.85310        1.40471       -0.57798
O          3.07827        2.44917       -1.14449
C          3.79331        0.26238       -0.35217
N          5.05829        0.18268       -0.74560
C          5.64198       -0.96714       -0.40735
C          4.97404       -1.98398        0.28965
N          3.70097       -1.88652        0.67818
C          3.13653       -0.73506        0.34173
C          1.71457       -0.32688        0.62740
O          0.80817       -1.18956       -0.01582
C         -0.14967       -1.74199        0.80237
O         -0.01412       -1.86677        2.00062
N         -1.22108       -2.16247        0.09352
C         -1.50032       -1.77116       -1.28666
C         -2.96101       -1.35745       -1.39985
N         -3.85611       -2.47004       -1.09621
C         -3.27617       -3.42381       -0.14863
C         -2.30869       -2.78660        0.84416
C         -5.16708       -1.98845       -0.71196
C          0.34544        3.02643       -0.50076
C         -0.86808        3.68022       -0.37157
H         -2.45068        1.31725        1.46664
H          6.68152       -1.09705       -0.69900
H          5.49275       -2.90707        0.53807
H          1.48445       -0.29736        1.69549
H         -0.85404       -0.93473       -1.55352
H         -1.28483       -2.59777       -1.97618
H         -3.12197       -0.50596       -0.70964
H         -3.16511       -0.99067       -2.41396
H         -2.74327       -4.21026       -0.70008
H         -4.08638       -3.91679        0.39780
H         -1.88888       -3.53576        1.52125
H         -2.81998       -2.03811        1.46683
H         -5.85804       -2.82932       -0.59479
H         -5.56119       -1.34057       -1.50289
H         -5.16331       -1.40347        0.22847
H          1.17349        3.46518       -1.04057
H         -1.01710        4.65854       -0.81878
