66
omegapdb_1z1r_13.log	Energy: -1302679.0208621
C         -0.15885       -0.04747       -0.58835
C         -0.27026       -1.20282        0.43118
C          1.07030       -1.84669        0.68496
C          1.83627       -1.50808        1.80216
C          3.14420       -1.95973        1.93894
C          3.71465       -2.75065        0.94409
C          2.92795       -3.18732       -0.12143
C          1.62381       -2.72399       -0.24834
O          5.04980       -3.04869        1.04389
C          5.85121       -2.73429       -0.10045
C          6.16917       -1.24855       -0.25163
C          4.93682       -0.35661       -0.39624
C          5.20971        0.95596       -1.10053
O          6.14291        1.11868       -1.86753
N          4.32897        1.98801       -0.85416
C          3.08081        1.91697       -0.12718
C          2.01970        1.05640       -0.85826
O          2.24520        0.56085       -1.95177
N          0.85701        0.90361       -0.17628
C          2.58940        3.34883        0.14847
C          1.84031        3.49524        1.46725
O          1.45521        2.54223        2.13224
N          1.62590        4.77364        1.86040
C         -1.48296        0.69091       -0.79797
O         -1.86136        1.26541        0.43536
C         -2.60220       -0.20381       -1.32505
N         -3.79395        0.63181       -1.50910
S         -5.27402       -0.15428       -1.62319
O         -5.10645       -1.46482       -2.23233
O         -6.16880        0.83686       -2.19682
C         -5.67951       -0.40398        0.08625
C         -5.55724       -1.67393        0.63737
C         -5.86707       -1.85480        1.98287
C         -6.29599       -0.77610        2.74914
C         -6.42602        0.49009        2.17861
C         -6.11826        0.68344        0.83876
H          0.17696       -0.44122       -1.55407
H         -0.97606       -1.94936        0.04545
H         -0.69488       -0.80718        1.36102
H          1.42127       -0.84039        2.55566
H          3.76132       -1.65558        2.78020
H          3.34402       -3.85289       -0.87243
H          1.03484       -3.03121       -1.11132
H          5.37070       -3.10850       -1.01359
H          6.77596       -3.29984        0.04385
H          6.79432       -1.12616       -1.14397
H          6.76944       -0.91768        0.60440
H          4.16407       -0.84706       -1.00289
H          4.47745       -0.18088        0.57900
H          4.41427        2.71936       -1.54821
H          3.25579        1.44336        0.84535
H          0.80063        1.28829        0.76362
H          1.94146        3.70680       -0.66217
H          3.46256        4.01165        0.17791
H          1.12281        4.93046        2.72040
H          1.96781        5.56713        1.34342
H         -1.29140        1.48328       -1.54350
H         -2.78233        1.54977        0.33372
H         -2.31108       -0.72288       -2.24704
H         -2.84605       -0.95760       -0.56968
H         -3.73064        1.26986       -2.30035
H         -5.23730       -2.50128        0.01071
H         -5.77578       -2.84063        2.42978
H         -6.53680       -0.92173        3.79881
H         -6.77317        1.32570        2.77981
H         -6.22906        1.65692        0.36907
