36
omegapdb_1qxw_20.log	Energy: -410434.8783671
C          3.24214        0.55923        0.85643
C          3.66715        0.58065       -0.58554
C          2.90959       -0.59328       -0.04562
N          1.53800       -0.73598       -0.44491
C          0.74527       -1.50574        0.49677
C         -0.70884       -1.60706        0.04532
C         -1.38967       -0.25155       -0.24422
N         -2.76143       -0.41446       -0.71970
C         -1.36548        0.68080        0.96968
C         -1.98844        2.05386        0.70381
C         -1.36547        2.82347       -0.46594
C          0.14989        3.00018       -0.36081
O         -0.67680       -2.40574       -1.12074
O         -1.49038       -2.24311        1.03493
H          4.00230        0.41683        1.61911
H          2.41917        1.20955        1.14212
H          3.12461        1.24267       -1.25431
H          4.72025        0.45171       -0.81806
H          3.47795       -1.51533        0.11799
H          1.48048       -1.17891       -1.35827
H          1.12023       -2.53865        0.63340
H          0.78345       -1.01810        1.47508
H         -0.81134        0.20716       -1.05240
H         -3.26039       -1.08397       -0.14055
H         -2.81139       -0.70528       -1.68954
H         -1.89182        0.19294        1.80036
H         -0.32529        0.81095        1.29211
H         -3.05935        1.92672        0.51258
H         -1.89306        2.65545        1.61879
H         -1.61158        2.31524       -1.40773
H         -1.84397        3.80962       -0.52529
H          0.42667        3.45660        0.59853
H          0.52754        3.65058       -1.15773
H          0.67408        2.03926       -0.43967
H         -1.57955       -2.40252       -1.47072
H         -1.14429       -3.14197        1.12364
