36
omegapdb_1qxw_34.log	Energy: -410434.5525115
C          4.29733       -1.58582       -0.66123
C          4.15894       -1.09594        0.75385
C          3.71783       -0.23153       -0.39109
N          2.30455       -0.07033       -0.58035
C          1.74891        1.03929        0.17603
C          0.24650        1.18309       -0.07146
C         -0.55115       -0.07529        0.36208
N         -0.55246       -0.07862        1.83335
C         -1.98615       -0.03657       -0.16237
C         -2.81218       -1.27725        0.18673
C         -4.14534       -1.35407       -0.56301
C         -5.09882       -0.20415       -0.24221
O          0.10671        1.42546       -1.45160
O         -0.24756        2.29983        0.62086
H          5.29111       -1.64667       -1.09526
H          3.60190       -2.35096       -0.99279
H          5.05679       -0.81919        1.29881
H          3.37139       -1.53960        1.35683
H          4.35423        0.63114       -0.61629
H          2.09959        0.07903       -1.56517
H          1.92729        0.86321        1.24461
H          2.20151        2.01446       -0.06922
H         -0.03730       -0.94927       -0.06271
H         -1.26387       -0.70910        2.18877
H          0.33584       -0.42751        2.18268
H         -2.47693        0.87001        0.21604
H         -1.93709        0.05131       -1.25464
H         -3.02394       -1.30900        1.26617
H         -2.22130       -2.17543       -0.04203
H         -4.63341       -2.30648       -0.32003
H         -3.94798       -1.37719       -1.64357
H         -6.06354       -0.34041       -0.74203
H         -5.28748       -0.13995        0.83653
H         -4.69328        0.76070       -0.56566
H         -0.69569        1.95716       -1.54432
H         -0.55103        1.93344        1.47437
