46
omegacsd_CDBMPI10_08.log	Energy: -649538.6579035
O         -2.52595       -2.46111       -0.18038
C         -2.45278       -1.24810       -0.08151
N         -1.24912       -0.57011        0.11142
C         -0.05180       -1.38446        0.38495
C          1.08887       -0.45175        0.80816
N          1.30378        0.65294       -0.11507
C          0.11057        1.46522       -0.35441
C         -0.98547        0.52407       -0.83718
C         -0.28842        2.30971        0.85496
C          2.52381        1.25560       -0.31984
O          2.61276        2.43588       -0.62942
C          3.76268        0.40843       -0.22583
C          4.90470        0.98528        0.32938
C          6.09617        0.27147        0.37744
C          6.16068       -1.01382       -0.15503
C          5.03159       -1.58289       -0.73767
C          3.83436       -0.87535       -0.77007
C         -0.26106       -2.38792        1.51829
C         -3.70527       -0.41535       -0.10894
C         -4.79385       -0.89908       -0.83502
C         -5.99396       -0.19839       -0.84589
C         -6.11918        0.97984       -0.11389
C         -5.04305        1.45455        0.63142
C         -3.83805        0.76045        0.63273
H          0.24109       -1.91684       -0.53551
H          0.85355       -0.05912        1.80938
H          2.00474       -1.03544        0.90133
H          0.35940        2.13991       -1.17735
H         -1.90631        1.08451       -1.00563
H         -0.67141        0.09639       -1.80285
H         -0.58000        1.68942        1.70934
H         -1.13817        2.95312        0.60004
H          0.54857        2.95014        1.14727
H          4.84516        2.00058        0.71128
H          6.97976        0.72200        0.82185
H          7.09501       -1.56861       -0.12523
H          5.08463       -2.57698       -1.17378
H          2.95508       -1.31140       -1.24000
H         -0.92491       -3.19821        1.22407
H          0.70645       -2.81030        1.81194
H         -0.68967       -1.88259        2.39148
H         -4.68428       -1.83324       -1.37842
H         -6.83616       -0.57502       -1.42039
H         -7.05985        1.52473       -0.11776
H         -5.14405        2.36488        1.21658
H         -2.99883        1.11905        1.22389
