34
omegapdb_2f7p_16.log	Energy: -719059.2381687
C         -0.56535        0.12866       -0.29482
N         -0.12540       -0.85404        0.71585
C          1.07557       -1.62181        0.33546
C          2.33557       -0.79123        0.20982
C          2.85135       -0.45289       -1.04159
C          3.99275        0.33799       -1.14988
C          4.63132        0.80026       -0.00415
C          4.12657        0.46714        1.25083
C          2.98804       -0.32386        1.35356
C         -1.56161       -0.54984       -1.26054
O         -1.12660       -1.74935       -1.85036
C         -2.80303       -0.75290       -0.37413
O         -2.63800       -1.94010        0.39102
C         -2.85311        0.50525        0.54388
O         -3.07462        0.14987        1.88603
C         -1.46170        1.18376        0.38044
S         -1.50072        2.77668       -0.50185
H          0.28495        0.58843       -0.81415
H          0.07258       -0.36107        1.58394
H          1.21453       -2.39659        1.09893
H          0.85771       -2.12105       -0.61141
H          2.35370       -0.81722       -1.93885
H          4.38349        0.59201       -2.13194
H          5.52304        1.41621       -0.08684
H          4.62529        0.81987        2.15005
H          2.60530       -0.59183        2.33834
H         -1.79149        0.15253       -2.07256
H         -1.50401       -2.45800       -1.30429
H         -3.72161       -0.88761       -0.95136
H         -1.73736       -1.83789        0.78860
H         -3.64335        1.19237        0.21546
H         -3.23793       -0.80804        1.88300
H         -1.09240        1.45184        1.37538
H         -2.12767        2.35087       -1.61033
