36
omegapdb_1qxw_26.log	Energy: -410429.1100133
C          4.66447       -1.24209       -0.60487
C          4.62069       -0.44319        0.67402
C          3.78350       -0.04058       -0.51196
N          2.35087       -0.20393       -0.52491
C          1.64082        0.74871        0.32339
C          0.14264        0.77460       -0.03811
C         -0.63009       -0.43869        0.54294
N         -0.84060       -0.34914        1.98643
C         -1.95967       -0.71654       -0.17093
C         -3.04406        0.34990       -0.00649
C         -4.35080       -0.00963       -0.72053
C         -5.06360       -1.23245       -0.14367
O         -0.43789        1.93917        0.50467
O          0.03766        0.84431       -1.43758
H          5.55245       -1.18626       -1.22724
H          4.18769       -2.21988       -0.60441
H          5.48205        0.16350        0.93885
H          4.10761       -0.88897        1.52318
H          4.10206        0.84688       -1.05607
H          2.11525       -1.15613       -0.25700
H          1.77413        0.57304        1.40237
H          2.04415        1.74573        0.11052
H         -0.00221       -1.32629        0.36761
H         -1.23566        0.56445        2.19537
H          0.04759       -0.38866        2.47870
H         -1.75849       -0.85924       -1.23898
H         -2.32347       -1.67068        0.22869
H         -2.67258        1.30485       -0.39196
H         -3.25271        0.50155        1.06221
H         -5.02819        0.85287       -0.66900
H         -4.14614       -0.17336       -1.78797
H         -6.02850       -1.39654       -0.63599
H         -4.47268       -2.14652       -0.26715
H         -5.25221       -1.10326        0.92909
H         -0.29212        2.62899       -0.15761
H          0.85852        0.43736       -1.77334
