36
omegapdb_1qxw_21.log	Energy: -410435.8037754
C         -4.68869        0.69005       -0.15096
C         -3.71080        1.71818       -0.66307
C         -3.33216        0.79052        0.46398
N         -2.38784       -0.27901        0.28220
C         -1.00807        0.17195        0.13087
C         -0.12210       -1.07282        0.12872
C          1.39523       -0.82574        0.18954
N          1.99230       -2.16165        0.07869
C          1.91474        0.05991       -0.94496
C          3.38468        0.49560       -0.78789
C          3.56586        1.90900       -0.22253
C          2.98747        2.11016        1.17673
O         -0.44240       -1.77448       -1.04769
O         -0.41290       -1.83749        1.27589
H         -4.89155       -0.17064       -0.78441
H         -5.54572        1.02480        0.42594
H         -3.25836        1.53462       -1.63498
H         -3.89552        2.76619       -0.44364
H         -3.27550        1.23172        1.45799
H         -2.62889       -0.83402       -0.53555
H         -0.74855        0.79767        0.99417
H         -0.85291        0.76207       -0.78392
H          1.60489       -0.34937        1.16036
H          3.00117       -2.10277       -0.01526
H          1.78884       -2.68516        0.92533
H          1.29106        0.95932       -1.02493
H          1.77198       -0.49510       -1.87897
H          3.88502        0.44973       -1.76245
H          3.92702       -0.21073       -0.14122
H          4.63736        2.14685       -0.20668
H          3.10321        2.62773       -0.91308
H          3.41761        1.39601        1.88975
H          1.89943        1.97602        1.18870
H          3.19682        3.11927        1.54730
H          0.24825       -2.46084       -1.10310
H         -1.38140       -1.78376        1.36428
