39
omegacsd_FIBREN_07.log	Energy: -667548.6533080
N          2.92243       -1.10375        1.52597
C          1.68460       -1.02843        2.02274
N          0.60907       -0.46021        1.44671
C          0.73794        0.12111        0.24993
C          2.00016        0.09504       -0.36954
C          3.00117       -0.52774        0.33683
O          4.13082       -0.45439       -0.42041
C          3.73563        0.21408       -1.55192
N          2.49452        0.56456       -1.58334
C          4.78139        0.44210       -2.58138
N         -0.32193        0.73555       -0.33354
C         -1.68474        0.61106        0.17344
C         -2.45328        1.88374       -0.17555
C         -1.94443        3.06821        0.61370
O         -1.48918        3.02221        1.72969
O         -2.08913        4.22285       -0.06547
C         -2.36279       -0.65985       -0.31639
C         -2.95770       -0.73945       -1.57711
C         -3.54223       -1.92460       -2.01268
C         -3.53697       -3.04807       -1.19106
C         -2.94198       -2.97966        0.06505
C         -2.35818       -1.79333        0.49848
C          1.44877       -1.64946        3.37039
H          5.60440        1.03405       -2.16924
H          5.19382       -0.51016       -2.92886
H          4.33873        0.97431       -3.42424
H         -0.19974        0.96758       -1.31070
H         -1.59045        0.56430        1.26086
H         -3.51369        1.75265        0.07201
H         -2.40705        2.11833       -1.24440
H         -1.77088        4.92421        0.52728
H         -2.97269        0.13019       -2.23219
H         -4.00510       -1.96990       -2.99531
H         -3.99524       -3.97366       -1.52990
H         -2.93275       -3.85343        0.71188
H         -1.87624       -1.73867        1.47188
H          0.68347       -2.42893        3.29501
H          2.37362       -2.08258        3.75440
H          1.07684       -0.89512        4.07074
