46
omegacsd_CDBMPI10_12.log	Energy: -649535.5618283
O         -2.51114        2.52831       -0.05305
C         -2.43943        1.31166       -0.14092
N         -1.22780        0.66671       -0.33296
C         -0.94676       -0.45449       -1.25284
C          0.15921       -1.31415       -0.64369
N          1.34017       -0.51276       -0.34275
C          1.09487        0.69768        0.45552
C         -0.03806        1.49847       -0.18720
C          0.81355        0.36641        1.92276
C          2.53933       -1.19039       -0.31866
O          2.60589       -2.39409       -0.52207
C          3.79801       -0.40017       -0.08582
C          4.07284        0.78508       -0.77056
C          5.28917        1.43371       -0.58504
C          6.23299        0.90592        0.29205
C          5.96760       -0.28287        0.96676
C          4.75958       -0.94132        0.76709
C         -2.11110       -1.32884       -1.70021
C         -3.66591        0.48645        0.11792
C         -3.63349       -0.62062        0.96588
C         -4.80898       -1.29598        1.27879
C         -6.01933       -0.87208        0.73724
C         -6.05689        0.24242       -0.09799
C         -4.88603        0.93070       -0.39185
H         -0.52779        0.00762       -2.16245
H          0.46227       -2.09272       -1.34595
H         -0.22172       -1.81964        0.25707
H          1.99276        1.31697        0.41150
H         -0.29163        2.35956        0.43210
H          0.28638        1.87738       -1.16864
H          0.69571        1.28850        2.50198
H          1.64571       -0.20237        2.35147
H         -0.10399       -0.21954        2.03594
H          3.33916        1.18723       -1.46638
H          5.50177        2.35074       -1.12833
H          7.18100        1.41633        0.44152
H          6.70807       -0.70275        1.64252
H          4.55214       -1.88725        1.25989
H         -2.50841       -1.95131       -0.89520
H         -2.93460       -0.74224       -2.11511
H         -1.73961       -1.99132       -2.48908
H         -2.68518       -0.94244        1.39092
H         -4.78076       -2.15103        1.94926
H         -6.93711       -1.40364        0.97560
H         -7.00306        0.58238       -0.51079
H         -4.90286        1.82266       -1.01218
