61
omegapdb_1v2k_13.log	Energy: -1425428.3685480
N        -10.68234       -0.30113       -0.28447
C        -10.01075       -0.61035        0.82792
C         -8.63282       -0.71819        0.92429
C         -7.84194       -0.49565       -0.22009
C         -8.54291       -0.16965       -1.39762
C         -9.92636       -0.08838       -1.36373
N         -6.47314       -0.59002       -0.18767
C         -5.77963       -1.22767        0.92748
C         -4.48669       -1.87757        0.44318
C         -3.50600       -0.86026       -0.16939
C         -4.28581        0.33422       -0.76764
C         -5.66182       -0.08175       -1.28133
C         -2.55041       -0.33208        0.89855
O         -2.89340       -0.28748        2.07352
N         -1.32804        0.13195        0.49893
C         -0.41024        0.62521        1.52450
C          1.02221        0.28895        1.13820
N          1.38456        0.87643       -0.16424
C          0.25302        1.13765       -1.07038
C         -0.81099        0.06900       -0.86472
S          2.52613        2.09790       -0.13603
O          2.31878        2.96801        1.01506
O          2.54194        2.64061       -1.48486
C          4.03887        1.20906        0.14709
C          4.65497        0.60547       -0.91643
C          5.86642       -0.10146       -0.71925
C          6.42292       -0.16926        0.58486
C          5.75823        0.48351        1.65813
C          4.59093        1.16647        1.44933
C          7.63781       -0.87807        0.78371
C          8.25240       -1.48175       -0.27724
C          7.70956       -1.41988       -1.58478
C          6.54194       -0.74208       -1.79404
Cl         9.73845       -2.34983       -0.04089
H        -10.61743       -0.77796        1.71765
H         -8.18446       -0.93865        1.88688
H         -8.02784       -0.01039       -2.33891
H        -10.46395        0.15867       -2.27919
H         -6.42954       -2.00575        1.34006
H         -5.55412       -0.51646        1.73433
H         -4.73975       -2.63221       -0.31079
H         -4.01604       -2.39220        1.28492
H         -2.94436       -1.35966       -0.96733
H         -3.72561        0.80676       -1.58298
H         -4.42985        1.09891        0.00533
H         -6.15485        0.79811       -1.70777
H         -5.55856       -0.82095       -2.09409
H         -0.67780        0.15033        2.47042
H         -0.51607        1.71003        1.65490
H          1.69716        0.66468        1.91126
H          1.15351       -0.79806        1.08113
H         -0.19428        2.12583       -0.89499
H          0.61402        1.11186       -2.10028
H         -1.61225        0.25838       -1.58289
H         -0.38641       -0.92099       -1.08692
H          4.22344        0.67956       -1.91166
H          6.19915        0.44309        2.65113
H          4.09257        1.69583        2.25596
H          8.07342       -0.93550        1.77723
H          8.23014       -1.91094       -2.40074
H          6.11483       -0.68434       -2.79229
