50
omegapdb_1xom_04.log	Energy: -710692.7863210
O          6.20349       -0.54652        0.26604
C          5.38459       -1.52767       -0.16874
O          5.79715       -2.61963       -0.47830
C          3.94068       -1.08429       -0.21848
C          3.43625       -0.64514        1.16471
C          1.96826       -0.22349        1.10131
C          1.71059        0.90019        0.06372
C          2.27769        0.46985       -1.31359
C          3.74521        0.04696       -1.24116
C          2.46022        2.09629        0.50221
N          3.07312        3.01545        0.84688
C          0.21602        1.22277       -0.02173
C         -0.31300        2.44914        0.35635
C         -1.68561        2.69787        0.28004
C         -2.55656        1.71833       -0.18046
O         -3.90109        1.86442       -0.30419
C         -4.45450        3.11518        0.04822
C         -2.03177        0.46625       -0.56071
C         -0.67055        0.23706       -0.47615
O         -2.84464       -0.50730       -1.07311
C         -3.69933       -1.15564       -0.13093
C         -4.68118       -2.05080       -0.88444
C         -5.09104       -3.14441        0.12804
C         -4.12018       -2.99813        1.32867
C         -2.97639       -2.12087        0.80887
H          7.09982       -0.92098        0.25794
H          3.37726       -1.96637       -0.54650
H          3.54787       -1.46410        1.88502
H          4.05273        0.18698        1.52614
H          1.34751       -1.08256        0.81658
H          1.61918        0.10946        2.08489
H          2.14682        1.28847       -2.02952
H          1.67291       -0.37007       -1.67627
H          4.07742       -0.28125       -2.23300
H          4.37130        0.90217       -0.95783
H          0.34059        3.23953        0.71528
H         -2.05860        3.67210        0.57822
H         -4.04750        3.92144       -0.57491
H         -4.27607        3.34912        1.10569
H         -5.52770        3.02900       -0.12738
H         -0.32198       -0.74454       -0.78802
H         -4.23774       -0.39550        0.44993
H         -5.52815       -1.48789       -1.28662
H         -4.14269       -2.48364       -1.73531
H         -6.13118       -3.02987        0.44898
H         -5.01114       -4.13775       -0.32468
H         -4.62368       -2.49114        2.16075
H         -3.77040       -3.96232        1.70984
H         -2.41346       -1.61843        1.60250
H         -2.27054       -2.71462        0.21220
