45
omegacsd_FABSOQ10_09.log	Energy: -924264.9562908
S         -0.21199        0.04391        0.18597
C         -0.90682        1.57452       -0.22476
C         -0.28371        2.59603        0.42295
C          0.78234        2.14324        1.26112
C          0.94943        0.79327        1.22615
C          2.00757       -0.01926        1.92158
O          1.39285       -1.21094        2.38321
C          3.19715       -0.31810        1.02142
C          4.33117        0.48253        1.05085
C          5.41981        0.23583        0.21438
C          5.37320       -0.84167       -0.66861
O          6.37217       -1.18188       -1.52596
C          7.53337       -0.38106       -1.52754
C          4.23812       -1.65944       -0.70330
C          3.16606       -1.39720        0.13073
C         -2.05016        1.67645       -1.20385
O         -2.51062        3.01813       -1.13795
C         -3.16652        0.68924       -0.92124
C         -3.49256       -0.31934       -1.82869
C         -4.52340       -1.20920       -1.56673
C         -5.25584       -1.09861       -0.38278
O         -6.24793       -2.01225       -0.21385
C         -7.00067       -1.95068        0.97816
C         -4.94539       -0.08951        0.53306
C         -3.90572        0.79110        0.25492
H         -0.58379        3.63045        0.30511
H          1.40013        2.80057        1.86626
H          2.36549        0.58706        2.77009
H          2.09909       -1.80251        2.67527
H          4.37666        1.32420        1.74053
H          6.28895        0.88308        0.26729
H          7.30549        0.65818       -1.79824
H          8.03392       -0.39676       -0.55048
H          8.19750       -0.81137       -2.27878
H          4.22419       -2.49352       -1.39881
H          2.28654       -2.03627        0.09714
H         -1.65878        1.46660       -2.21421
H         -3.30518        3.06822       -1.68419
H         -2.92999       -0.41232       -2.75639
H         -4.78356       -1.99866       -2.26550
H         -7.72883       -2.76104        0.91803
H         -6.36657       -2.09772        1.86193
H         -7.53125       -0.99405        1.07048
H         -5.49754        0.01545        1.46104
H         -3.65707        1.57460        0.96739
