66
omegapdb_1z1r_15.log	Energy: -1302679.2909610
C          0.63225       -0.86627       -1.25232
C          0.82854        0.56147       -1.80699
C         -0.36514        1.43614       -1.52582
C         -0.54093        2.02600       -0.27239
C         -1.72678        2.67138        0.05675
C         -2.76193        2.73607       -0.87457
C         -2.56013        2.24722       -2.16521
C         -1.37489        1.59280       -2.47941
O         -3.98358        3.27026       -0.57002
C         -4.65773        2.70374        0.55873
C         -5.54559        1.52667        0.17136
C         -4.80743        0.32759       -0.43170
C         -3.85827       -0.33596        0.55084
O         -4.21867       -0.58797        1.69745
N         -2.63496       -0.70196        0.07071
C         -1.70739       -1.47157        0.88845
C         -0.33946       -0.80306        1.13670
O         -0.10250       -0.32565        2.23425
N          0.67471       -0.89099        0.20611
C         -1.55941       -2.92772        0.42919
C         -2.84229       -3.75448        0.34400
O         -2.93070       -4.66209       -0.46477
N         -3.81393       -3.49327        1.26185
C          1.66032       -1.87022       -1.82250
O          1.48126       -3.13574       -1.22485
C          3.12970       -1.44500       -1.72220
N          3.56981       -1.45362       -0.32422
S          4.83710       -0.46460        0.13922
O          5.43793       -1.14126        1.27538
O          5.62052       -0.07026       -1.02119
C          3.97513        0.98269        0.71064
C          4.10321        2.17541        0.00782
C          3.39764        3.29353        0.44741
C          2.57877        3.20607        1.56970
C          2.46160        2.00377        2.26787
C          3.17001        0.88605        1.84462
H         -0.35216       -1.23226       -1.56641
H          1.00270        0.49533       -2.88908
H          1.73203        0.99739       -1.36116
H          0.24754        1.95486        0.47405
H         -1.85720        3.10171        1.04565
H         -3.35928        2.35069       -2.89437
H         -1.24219        1.17787       -3.47752
H         -5.27022        3.50928        0.97318
H         -3.93502        2.39980        1.32581
H         -6.07153        1.19363        1.07349
H         -6.29921        1.87301       -0.54462
H         -4.29986        0.59877       -1.36011
H         -5.54535       -0.44313       -0.68746
H         -2.37591       -0.40896       -0.86160
H         -2.14393       -1.44845        1.88871
H          1.52954       -0.49609        0.58566
H         -1.08246       -3.01710       -0.55037
H         -0.90296       -3.44524        1.14259
H         -4.66286       -4.02820        1.14848
H         -3.89567       -2.60122        1.73746
H          1.43528       -1.99325       -2.88942
H          1.28332       -2.96128       -0.29064
H          3.28145       -0.44211       -2.13192
H          3.73554       -2.13098       -2.32529
H          3.74306       -2.38687        0.03884
H          4.75160        2.21583       -0.86255
H          3.48913        4.23379       -0.08896
H          2.02572        4.08018        1.90352
H          1.81047        1.92685        3.13341
H          3.09254       -0.05353        2.38612
