25
omegapdb_1m5f_13.log	Energy: -499674.9824951
O          3.29215       -2.04868        0.13560
C          2.06730       -1.65940       -0.24335
O          1.25263       -2.42567       -0.68342
C          1.80841       -0.19234       -0.08104
N          2.79688        0.56905        0.31600
O          2.31075        1.83864        0.33852
C          1.01919        1.83029       -0.05317
C          0.62362        0.55634       -0.33688
C         -0.72760        0.07433       -0.77796
C         -1.74331        0.07392        0.36996
N         -1.37555       -0.90197        1.38251
C         -3.12894       -0.23606       -0.17402
O         -3.47946       -0.09455       -1.31970
O         -3.97106       -0.63772        0.79737
C          0.33270        3.14882       -0.10606
H          3.79503       -1.27164        0.43755
H         -1.11273        0.70506       -1.58537
H         -0.63709       -0.94477       -1.16155
H         -1.82379        1.10805        0.76437
H         -2.07116       -0.92382        2.12089
H         -0.48874       -0.64077        1.80283
H         -4.82662       -0.79860        0.36618
H         -0.64104        3.04147       -0.59071
H          0.17945        3.55549        0.89891
H          0.92902        3.86854       -0.67457
