50
omegapdb_1xom_21.log	Energy: -710681.3910502
O         -5.37288        2.48847       -0.32394
C         -5.00869        1.19438       -0.16106
O         -5.60342        0.49906        0.61834
C         -3.78683        0.75525       -0.96404
C         -2.51321        1.25959       -0.23729
C         -2.08273        0.27281        0.84856
C         -1.65570       -1.10808        0.25449
C         -2.32993       -1.31019       -1.13496
C         -3.75915       -0.77418       -1.14059
C         -2.17294       -2.15800        1.15651
N         -2.59540       -2.98790        1.84350
C         -0.13908       -1.27688        0.11124
C          0.45976       -2.52735        0.20441
C          1.83051       -2.68872        0.00025
C          2.63315       -1.59565       -0.30838
O          3.97060       -1.65401       -0.54165
C          4.58792       -2.92306       -0.48378
C          2.04020       -0.32098       -0.39642
C          0.67700       -0.18121       -0.19044
O          2.76862        0.78063       -0.74493
C          3.74074        1.24358        0.21297
C          3.05936        1.78819        1.46728
C          2.47796        3.14845        1.03211
C          3.30303        3.58323       -0.20876
C          4.36623        2.48601       -0.40567
H         -4.81987        2.90660       -0.99826
H         -3.83386        1.23950       -1.94960
H         -2.69242        2.24394        0.21202
H         -1.71385        1.39722       -0.97414
H         -2.92798        0.12549        1.53010
H         -1.26385        0.68105        1.44855
H         -1.71917       -0.79498       -1.88620
H         -2.30815       -2.37406       -1.39204
H         -4.26607       -1.05250       -2.07023
H         -4.32873       -1.23101       -0.32300
H         -0.13814       -3.40046        0.45419
H          2.25908       -3.68179        0.08424
H          5.64275       -2.75459       -0.70498
H          4.16477       -3.60732       -1.23009
H          4.49263       -3.37157        0.51340
H          0.27692        0.82531       -0.27807
H          4.45814        0.44174        0.41381
H          2.30710        1.10113        1.86904
H          3.82408        1.92110        2.24256
H          1.41927        3.04502        0.77009
H          2.53092        3.88287        1.84189
H          2.65924        3.63810       -1.09167
H          3.75814        4.57015       -0.07939
H          4.63422        2.32148       -1.45319
H          5.28355        2.72657        0.14531
