66
omegapdb_1z1r_17.log	Energy: -1302681.2287668
C         -0.24279       -2.13861        0.14702
C         -1.19530       -3.12886       -0.56905
C         -2.61749       -2.61840       -0.58430
C         -3.23338       -2.28388       -1.78968
C         -4.44499       -1.59961       -1.81482
C         -5.05319       -1.22857       -0.62035
C         -4.49745       -1.63387        0.59392
C         -3.29303       -2.32613        0.60454
O         -6.16346       -0.42125       -0.66993
C         -5.95179        0.86269       -0.07017
C         -4.88783        1.65940       -0.83099
C         -4.27793        2.82990       -0.04153
C         -3.78010        2.41460        1.33597
O         -4.48951        2.54821        2.32146
N         -2.52916        1.87206        1.45503
C         -1.62923        1.41178        0.42419
C         -1.09794        0.03788        0.87493
O         -1.09835       -0.26963        2.05942
N         -0.60236       -0.75463       -0.10790
C         -0.45085        2.37898        0.21169
C          0.38911        1.98071       -0.99357
O         -0.11037        1.45138       -1.98067
N          1.71092        2.25293       -0.90842
C          1.22150       -2.38692       -0.23589
O          1.58855       -3.74176       -0.02093
C          2.18479       -1.45938        0.50033
N          3.53474       -1.76423        0.03306
S          4.80446       -1.00563        0.78705
O          5.98175       -1.77806        0.42860
O          4.49518       -0.71955        2.18161
C          4.84652        0.56356       -0.05572
C          4.95226        0.59867       -1.44423
C          5.04786        1.83016       -2.08321
C          5.04591        3.00828       -1.33439
C          4.94473        2.95903        0.05370
C          4.84310        1.72926        0.70198
H         -0.34670       -2.25881        1.23192
H         -0.85052       -3.27845       -1.60038
H         -1.11244       -4.10407       -0.07703
H         -2.73520       -2.51666       -2.72930
H         -4.90081       -1.29221       -2.75180
H         -4.99026       -1.37503        1.52726
H         -2.84291       -2.58323        1.56148
H         -6.92389        1.36144       -0.10276
H         -5.67693        0.74656        0.98474
H         -4.09109        0.96615       -1.12144
H         -5.31339        2.03970       -1.76651
H         -3.47667        3.28467       -0.63699
H         -5.03304        3.59905        0.14358
H         -2.33360        1.48383        2.37259
H         -2.14905        1.30120       -0.53053
H         -0.69324       -0.42938       -1.06449
H          0.14998        2.43753        1.12705
H         -0.85693        3.38098        0.02642
H          2.13899        2.65197       -0.08793
H          2.31219        2.01166       -1.68388
H          1.34395       -2.23187       -1.31526
H          1.43766       -3.94353        0.91423
H          1.95692       -0.41448        0.26462
H          2.08447       -1.59005        1.58847
H          3.71617       -2.76585       -0.01334
H          4.95723       -0.32900       -2.00956
H          5.13781        1.87250       -3.16533
H          5.13129        3.96794       -1.83743
H          4.95704        3.87758        0.63462
H          4.76739        1.65817        1.78318
