66
omegapdb_1z1r_04.log	Energy: -1302685.7682393
C         -0.13133       -1.68437       -0.59049
C         -1.05017       -2.80152       -1.12063
C         -2.47737       -2.54513       -0.68970
C         -2.80659       -2.43414        0.66411
C         -4.05443       -1.97929        1.07168
C         -5.00715       -1.61866        0.11603
C         -4.72290       -1.79920       -1.23574
C         -3.46667       -2.25108       -1.62763
O         -6.23355       -1.11192        0.44411
C         -6.27657       -0.01130        1.35802
C         -6.07571        1.33255        0.66184
C         -4.64102        1.62870        0.22059
C         -3.72532        1.91671        1.40453
O         -4.14654        1.96948        2.54830
N         -2.40003        2.19028        1.14160
C         -1.67396        1.76490       -0.03458
C         -0.93033        0.45989        0.27711
O         -0.48244        0.25836        1.39895
N         -0.74345       -0.37990       -0.76914
C         -0.63348        2.80570       -0.47255
C         -0.09091        2.46143       -1.85491
O         -0.81984        1.99513       -2.72341
N          1.21867        2.73029       -2.07126
C          1.26962       -1.70276       -1.20884
O          1.83277       -2.96918       -0.95319
C          2.12086       -0.58213       -0.62260
N          3.43728       -0.57493       -1.27588
S          4.46176        0.67219       -0.81074
O          3.68266        1.87043       -0.49848
O          5.49313        0.71780       -1.83252
C          5.13468        0.06402        0.70921
C          4.55798        0.44762        1.91558
C          5.08655       -0.05715        3.09974
C          6.17688       -0.92122        3.06290
C          6.75071       -1.28626        1.84601
C          6.22994       -0.79421        0.65612
H         -0.01018       -1.80610        0.49015
H         -0.99531       -2.83658       -2.21739
H         -0.66517       -3.75965       -0.75613
H         -2.06197       -2.66932        1.42240
H         -4.27796       -1.88524        2.13041
H         -5.48289       -1.53884       -1.96698
H         -3.24364       -2.34258       -2.68962
H         -5.54821       -0.13448        2.16566
H         -7.27743       -0.05213        1.79640
H         -6.39770        2.11706        1.35494
H         -6.73734        1.36576       -0.21156
H         -4.62529        2.50460       -0.44188
H         -4.24112        0.79692       -0.37008
H         -1.84474        2.16412        1.99089
H         -2.36539        1.63068       -0.86796
H         -1.15872       -0.13463       -1.65966
H         -1.12152        3.78475       -0.53802
H          0.16708        2.88338        0.27299
H          1.88995        2.87345       -1.32746
H          1.58865        2.49587       -2.98127
H          1.17111       -1.53440       -2.29983
H          2.78622       -2.89535       -1.10249
H          1.61485        0.37921       -0.74218
H          2.26847       -0.76880        0.44709
H          3.37260       -0.52227       -2.29276
H          3.71969        1.13791        1.92117
H          4.64722        0.22967        4.05069
H          6.58796       -1.31091        3.99034
H          7.60786       -1.95320        1.82537
H          6.66815       -1.05353       -0.30323
