34
omegapdb_2f7p_08.log	Energy: -719060.3508998
C          0.91321       -0.07265        0.58473
N         -0.43158        0.10989        0.08604
C         -1.46094       -0.48320        0.93459
C         -2.84813       -0.23802        0.38146
C         -3.82095       -1.23481        0.44287
C         -5.10888       -1.00305       -0.03261
C         -5.43549        0.23139       -0.58407
C         -4.46784        1.23062       -0.65609
C         -3.18409        0.99751       -0.17553
C          1.52911       -1.47720        0.37666
O          1.14754       -1.92638       -0.90190
C          3.07152       -1.24458        0.43702
O          3.68567       -1.89864       -0.65275
C          3.26168        0.29816        0.35536
O          4.36098        0.56677       -0.49368
C          1.91939        0.82247       -0.14216
S          1.72073        2.59760        0.15808
H          0.92663        0.18253        1.65421
H         -0.47413       -0.33174       -0.83161
H         -1.32118       -1.56771        1.08387
H         -1.37638       -0.01680        1.92624
H         -3.56691       -2.20585        0.86455
H         -5.85543       -1.79156        0.02122
H         -6.43856        0.41337       -0.96163
H         -4.71477        2.19672       -1.08973
H         -2.42197        1.76999       -0.23650
H          1.19826       -2.19523        1.13982
H          1.97320       -2.22758       -1.32285
H          3.48987       -1.63376        1.37246
H          4.26644       -1.23919       -1.07063
H          3.45462        0.69481        1.36297
H          4.31185        1.48621       -0.78680
H          1.84893        0.61843       -1.21727
H          0.42391        2.62264       -0.18649
