34
omegapdb_2f7p_06.log	Energy: -719060.7723603
C         -0.51913       -0.22520        0.23306
N          0.25482       -0.31734        1.45369
C          1.43699       -1.16992        1.34293
C          2.51592       -0.56903        0.46501
C          3.28326       -1.38562       -0.36497
C          4.30734       -0.85114       -1.14255
C          4.56792        0.51462       -1.10627
C          3.79962        1.33963       -0.28811
C          2.78306        0.80128        0.49292
C         -1.33618       -1.48281       -0.14374
O         -1.89246       -2.00378        1.04163
C         -2.46131       -0.95246       -1.08568
O         -3.70122       -1.49893       -0.68931
C         -2.44204        0.59572       -0.92339
O         -3.77826        1.05512       -0.85385
C         -1.61466        0.83774        0.33450
S         -1.04123        2.55266        0.44445
H          0.15803        0.03984       -0.59003
H         -0.35903       -0.72021        2.15906
H          1.19902       -2.18257        0.97447
H          1.83323       -1.29636        2.35836
H          3.07742       -2.45432       -0.40324
H          4.89720       -1.50278       -1.78256
H          5.36275        0.93617       -1.71651
H          3.99296        2.40921       -0.25864
H          2.17474        1.44208        1.12582
H         -0.72255       -2.24799       -0.63917
H         -2.83065       -2.16288        0.83168
H         -2.26175       -1.22998       -2.12701
H         -4.31234       -0.74618       -0.60615
H         -1.93118        1.04551       -1.78740
H         -3.78172        1.93922       -0.46325
H         -2.24291        0.60451        1.20264
H         -0.32638        2.36940        1.56483
