45
omegacsd_FABSOQ10_04.log	Energy: -924265.8886632
S          0.10424       -0.11471       -0.07926
C          0.93768       -0.94821        1.19055
C          0.41282       -2.18961        1.38739
C         -0.67314       -2.48557        0.50499
C         -0.95534       -1.45510       -0.34062
C         -2.05279       -1.39978       -1.38380
O         -2.50548       -2.70784       -1.68151
C         -3.23970       -0.58635       -0.91085
C         -3.42977        0.71602       -1.34690
C         -4.49757        1.48934       -0.88656
C         -5.39616        0.93741        0.02232
O         -6.47364        1.58796        0.53757
C         -6.68481        2.92267        0.13393
C         -5.21730       -0.38050        0.46250
C         -4.14963       -1.12793        0.00378
C          2.07214       -0.29158        1.93371
O          1.65820        0.92431        2.53226
C          3.26764       -0.00124        1.04240
C          3.78878        1.27773        0.91435
C          4.89520        1.52724        0.09885
C          5.49020        0.47870       -0.59674
O          6.56771        0.60492       -1.41844
C          7.11578        1.89405       -1.58059
C          4.97245       -0.81610       -0.47092
C          3.87565       -1.04650        0.33752
H          0.78818       -2.87610        2.14112
H         -1.23221       -3.41529        0.50944
H         -1.64991       -0.91764       -2.28953
H         -1.72978       -3.22716       -1.93277
H         -2.73675        1.15148       -2.06513
H         -4.61518        2.50453       -1.25054
H         -6.85113        2.99494       -0.94888
H         -7.58038        3.25969        0.65839
H         -5.83879        3.56512        0.41152
H         -5.93471       -0.78950        1.16799
H         -4.01494       -2.15129        0.34381
H          2.38744       -1.00821        2.71121
H          0.82812        0.74868        2.99314
H          3.32694        2.09481        1.45860
H          5.27600        2.54028        0.02036
H          7.48679        2.29698       -0.62893
H          6.38267        2.59295       -2.00443
H          7.95052        1.78365       -2.27479
H          5.44971       -1.62081       -1.02245
H          3.47231       -2.05463        0.41917
