36
omegapdb_1qxw_32.log	Energy: -410428.2100762
C          4.49998       -1.19041       -0.33177
C          4.33285        0.01514        0.54958
C          3.22213       -0.40552       -0.36761
N          2.08083       -1.01716        0.25327
C          1.07477       -0.15046        0.83387
C          0.18235        0.62712       -0.14670
C         -0.99667        1.35745        0.53988
N         -1.79943        2.13210       -0.40728
C         -1.89773        0.48883        1.43723
C         -2.54337       -0.77782        0.86200
C         -3.51813       -0.56564       -0.29791
C         -4.33027       -1.82352       -0.59878
O          1.01405        1.56801       -0.79417
O         -0.37230       -0.23377       -1.12550
H          5.17070       -1.12356       -1.18373
H          4.45906       -2.16388        0.14781
H          4.88303        0.91946        0.30712
H          4.18250       -0.16376        1.61031
H          3.05815        0.23424       -1.23577
H          1.66768       -1.74389       -0.32057
H          0.42722       -0.77478        1.45816
H          1.57860        0.56991        1.48898
H         -0.52264        2.08933        1.20644
H         -2.00558        1.58659       -1.23826
H         -1.33307        2.98880       -0.68544
H         -1.32206        0.20324        2.32760
H         -2.69020        1.16013        1.79002
H         -3.08905       -1.25849        1.68721
H         -1.77063       -1.49003        0.54701
H         -4.19189        0.27010       -0.06709
H         -2.95683       -0.28382       -1.19640
H         -5.01032       -1.67190       -1.44410
H         -4.93435       -2.12021        0.26725
H         -3.67166       -2.66483       -0.84638
H          0.43659        2.04837       -1.40548
H          0.37556       -0.54055       -1.65793
