25
omegapdb_1m5f_03.log	Energy: -499681.4119577
O          2.12103        2.85932        0.27841
C          1.14370        1.99388        0.02899
O         -0.00485        2.35462       -0.10996
C          1.55912        0.56589       -0.04611
N          2.78206        0.24373        0.29614
O          2.84748       -1.10814        0.19164
C          1.65112       -1.59417       -0.21108
C          0.78026       -0.56523       -0.40039
C         -0.65399       -0.57101       -0.81667
C         -1.59000       -0.45466        0.40693
N         -1.79782       -1.77174        0.98248
C         -2.89019        0.24297       -0.00934
O         -3.94953       -0.33082       -0.05971
O         -2.76815        1.53194       -0.34815
C          1.51852       -3.06931       -0.34076
H          2.95957        2.37262        0.38118
H         -0.82422        0.25031       -1.51961
H         -0.89611       -1.50064       -1.34218
H         -1.10186        0.18366        1.15345
H         -2.58420       -2.19259        0.48804
H         -2.11847       -1.67503        1.94210
H         -1.84645        1.84030       -0.23869
H          0.49137       -3.35341       -0.09569
H          2.19942       -3.57115        0.35105
H          1.75219       -3.40350       -1.35708
