66
omegapdb_1z1r_24.log	Energy: -1302679.2602884
C          0.55605       -1.14172        0.37605
C          0.84909       -0.15338        1.52333
C         -0.08536        1.03064        1.45579
C         -1.14140        1.17231        2.35525
C         -2.10360        2.16344        2.18755
C         -2.02861        3.01355        1.08625
C         -0.93928        2.93244        0.22082
C          0.02175        1.94771        0.40780
O         -3.00433        3.93445        0.80827
C         -4.31868        3.41000        0.60463
C         -4.45921        2.51281       -0.62527
C         -3.98056        1.07242       -0.44257
C         -4.28571        0.21424       -1.65876
O         -4.79961        0.65927       -2.66860
N         -3.97563       -1.12713       -1.56160
C         -3.10646       -1.70278       -0.56382
C         -1.63480       -1.26951       -0.75283
O         -1.22905       -0.82132       -1.81332
N         -0.85492       -1.46271        0.34135
C         -3.21569       -3.23653       -0.61032
C         -2.46170       -3.84810        0.56340
O         -2.63824       -3.43756        1.70339
N         -1.57671       -4.83283        0.27427
C          1.36254       -2.44963        0.44127
O          0.96570       -3.27411        1.52864
C          2.87941       -2.25196        0.46489
N          3.31985       -1.49100       -0.70043
S          4.70476       -0.55980       -0.61117
O          5.33862       -0.70219       -1.91160
O          5.39875       -0.86774        0.62957
C          4.09314        1.10388       -0.47302
C          3.62152        1.74816       -1.61425
C          3.14341        3.04848       -1.50274
C          3.13761        3.68753       -0.26335
C          3.61854        3.03435        0.86728
C          4.10761        1.73445        0.76640
H          0.78143       -0.65275       -0.57608
H          1.89139        0.18058        1.45293
H          0.73072       -0.65687        2.49428
H         -1.23046        0.48089        3.19191
H         -2.93009        2.25184        2.88777
H         -0.89020        3.61798       -0.62039
H          0.84407        1.86335       -0.30100
H         -4.93918        4.30148        0.48125
H         -4.66512        2.88741        1.50860
H         -5.51832        2.49008       -0.90730
H         -3.93518        2.97597       -1.46821
H         -4.44879        0.62393        0.44525
H         -2.89913        1.03406       -0.26966
H         -3.97042       -1.57019       -2.47196
H         -3.44125       -1.39262        0.43138
H         -1.27157       -1.86380        1.17328
H         -4.27285       -3.50795       -0.52106
H         -2.84865       -3.61154       -1.57404
H         -1.31821       -5.03249       -0.67882
H         -0.90752       -5.06208        0.99758
H          1.09108       -3.02880       -0.45055
H          1.25347       -2.85697        2.35211
H          3.17803       -1.69897        1.36166
H          3.36536       -3.23368        0.52518
H          3.33807       -2.00949       -1.57272
H          3.64809        1.24070       -2.57430
H          2.77689        3.56508       -2.38537
H          2.75661        4.70179       -0.17993
H          3.62044        3.53829        1.82946
H          4.51461        1.21429        1.62879
