39
omegacsd_FIBREN_02.log	Energy: -667548.9487583
N          3.14708        1.57507       -0.99406
C          1.87393        1.76869       -1.35247
N          0.82991        0.95179       -1.11955
C          1.03252       -0.19501       -0.46596
C          2.33681       -0.50249       -0.04141
C          3.29899        0.42959       -0.34933
O          4.47960       -0.03626        0.14630
C          4.15154       -1.23326        0.73122
N          2.90674       -1.56425        0.65590
C          5.26428       -1.98204        1.36897
N         -0.00561       -1.04024       -0.24555
C         -1.38693       -0.65277       -0.48401
C         -2.23373       -1.92655       -0.54258
C         -3.60270       -1.67376       -1.12632
O         -3.89669       -0.76380       -1.86365
O         -4.48185       -2.62471       -0.76129
C         -1.92249        0.32902        0.55119
C         -1.68453        0.13191        1.91195
C         -2.20042        1.01212        2.85695
C         -2.96408        2.10254        2.44921
C         -3.20558        2.30572        1.09424
C         -2.68686        1.42364        0.15064
C          1.55715        3.03087       -2.10283
H          5.73081       -1.38163        2.15597
H          6.03504       -2.22727        0.63183
H          4.87003       -2.90285        1.80062
H          0.18733       -1.82183        0.36484
H         -1.42271       -0.17039       -1.46405
H         -1.74236       -2.66651       -1.18800
H         -2.34721       -2.38288        0.44730
H         -5.31736       -2.40453       -1.20609
H         -1.07589       -0.70945        2.24050
H         -2.00336        0.84814        3.91347
H         -3.36486        2.79409        3.18602
H         -3.79627        3.15794        0.76758
H         -2.87847        1.57836       -0.90804
H          1.25005        2.78933       -3.12599
H          0.72040        3.54945       -1.62604
H          2.43204        3.68219       -2.13466
