66
omegapdb_1z1r_21.log	Energy: -1302684.1516055
C         -0.37204       -2.04826        0.14721
C         -1.41652       -3.17824        0.10720
C         -2.81023       -2.64470        0.34904
C         -3.10291       -1.89757        1.49533
C         -4.31487       -1.23719        1.63267
C         -5.26368       -1.30911        0.60991
C         -5.02556       -2.11985       -0.49510
C         -3.80217       -2.77328       -0.62262
O         -6.42525       -0.59111        0.65861
C         -6.26488        0.83414        0.70326
C         -5.78751        1.42851       -0.62185
C         -4.28102        1.36761       -0.89278
C         -3.49760        2.32209        0.00557
O         -4.06272        3.05979        0.79878
N         -2.14067        2.35820       -0.14099
C         -1.30787        1.50161       -0.95051
C         -0.67985        0.37700       -0.11310
O         -0.01256        0.62224        0.88147
N         -0.83311       -0.88597       -0.60177
C         -0.16557        2.28899       -1.62061
C          0.69909        3.07945       -0.64158
O          0.21050        3.85548        0.16904
N          2.03568        2.92200       -0.78408
C          0.99926       -2.50198       -0.38155
O          1.44428       -3.69616        0.24200
C          2.03452       -1.39675       -0.22198
N          3.25067       -1.72761       -0.94863
S          4.31930       -0.50898       -1.27249
O          3.53158        0.56864       -1.86413
O          5.42860       -1.11570       -1.98149
C          4.92560        0.08320        0.29333
C          4.09990        0.85134        1.11569
C          4.58878        1.28085        2.34458
C          5.88526        0.95293        2.73580
C          6.69998        0.19125        1.90304
C          6.22133       -0.25190        0.67416
H         -0.24638       -1.70442        1.18259
H         -1.37515       -3.67813       -0.86983
H         -1.13068       -3.93454        0.84554
H         -2.35652       -1.79678        2.28150
H         -4.51859       -0.63768        2.51561
H         -5.78591       -2.18654       -1.26806
H         -3.60653       -3.36897       -1.51318
H         -7.26528        1.20781        0.93442
H         -5.59663        1.12863        1.51995
H         -6.08714        2.48145       -0.63609
H         -6.32542        0.92219       -1.43268
H         -3.89369        0.34837       -0.78374
H         -4.09563        1.65551       -1.93722
H         -1.64312        3.04399        0.42212
H         -1.91434        1.06770       -1.75256
H         -1.53094       -1.04098       -1.31596
H         -0.60975        3.01917       -2.30606
H          0.44403        1.59945       -2.21718
H          2.46932        2.21462       -1.36635
H          2.62735        3.46125       -0.16908
H          0.90725       -2.74842       -1.44557
H          1.50400       -3.52547        1.19310
H          2.21661       -1.22557        0.85165
H          1.65533       -0.46447       -0.64025
H          3.71120       -2.58920       -0.67200
H          3.09206        1.11878        0.80535
H          3.95488        1.87817        2.99390
H          6.26373        1.29806        3.69435
H          7.71363       -0.05503        2.20667
H          6.84110       -0.83806        0.00225
