36
omegapdb_1qxw_05.log	Energy: -410438.5033983
C         -4.96495       -0.69731       -0.02883
C         -4.05855       -1.75295       -0.61208
C         -3.57583       -0.85049        0.49561
N         -2.60931        0.18771        0.26082
C         -1.25786       -0.30770        0.02925
C         -0.34240        0.91056       -0.06971
C          1.15457        0.60376       -0.25602
N          1.78236        1.89963       -0.53736
C          1.76629       -0.16501        0.92132
C          3.27462       -0.40142        0.81003
C          3.69646       -1.25054       -0.39010
C          5.19381       -1.54897       -0.39665
O         -0.45261        1.67588        1.10700
O         -0.79644        1.63111       -1.18881
H         -5.79390       -1.00895        0.59981
H         -5.17818        0.17671       -0.64023
H         -3.66234       -1.57412       -1.60911
H         -4.26547       -2.79636       -0.39038
H         -3.47095       -1.30368        1.48042
H         -2.87915        0.75736       -0.53733
H         -1.16685       -0.92292       -0.88074
H         -0.96750       -0.92149        0.88908
H          1.23324        0.00872       -1.17492
H          1.83767        2.43779        0.32426
H          2.72631        1.78007       -0.88977
H          1.54277        0.38881        1.84116
H          1.26531       -1.13904        1.01306
H          3.61958       -0.89367        1.72930
H          3.80113        0.56354        0.77561
H          3.13129       -2.19305       -0.38101
H          3.42466       -0.74364       -1.32655
H          5.48081       -2.15350       -1.26347
H          5.48839       -2.09607        0.50661
H          5.77914       -0.62207       -0.42631
H         -1.40651        1.68486        1.29960
H         -0.07543        2.26391       -1.36588
