50
omegapdb_1xom_18.log	Energy: -710686.2058739
O         -5.80084       -2.47624        0.57176
C         -5.51415       -1.37575       -0.16475
O         -6.39813       -0.76655       -0.70297
C         -4.03857       -1.00048       -0.23525
C         -3.82398        0.16823       -1.19705
C         -2.34980        0.56230       -1.27764
C         -1.74083        0.89883        0.10802
C         -2.00174       -0.27748        1.08323
C         -3.47871       -0.66580        1.15977
C         -2.45313        2.07957        0.64000
N         -3.03832        2.98430        1.06204
C         -0.24303        1.19787       -0.00233
C          0.30621        2.42742        0.33608
C          1.67617        2.66690        0.21116
C          2.52941        1.67128       -0.25187
O          3.86963        1.80276       -0.40421
C          4.44380        3.04724       -0.06380
C          1.98293        0.41973       -0.59789
C          0.62232        0.20181       -0.47386
O          2.79452       -0.55931       -1.10566
C          3.21647       -1.54805       -0.16898
C          3.87546       -2.70442       -0.92491
C          4.87668       -3.33301        0.07367
C          4.85220       -2.42124        1.32452
C          4.29092       -1.09086        0.81775
H         -4.98670       -2.86426        0.92068
H         -3.49682       -1.88161       -0.61832
H         -4.19528       -0.09693       -2.19183
H         -4.43080        1.01749       -0.86121
H         -1.76611       -0.26402       -1.70303
H         -2.21627        1.41951       -1.94597
H         -1.41496       -1.13585        0.73246
H         -1.62143       -0.01503        2.07635
H         -3.58520       -1.51327        1.84921
H         -4.06051        0.15959        1.59066
H         -0.33083        3.22820        0.70179
H          2.06320        3.64330        0.48286
H          5.51367        2.94484       -0.25057
H          4.28052        3.28814        0.99460
H          4.04223        3.85717       -0.68590
H          0.25191       -0.77578       -0.77555
H          2.33509       -1.90339        0.38947
H          3.13998       -3.41785       -1.30848
H          4.39384       -2.27566       -1.78935
H          5.88046       -3.36293       -0.36225
H          4.61410       -4.36517        0.32581
H          5.83603       -2.31698        1.79201
H          4.17963       -2.84025        2.08373
H          3.90270       -0.44398        1.61165
H          5.04663       -0.52519        0.26038
