35
omegacsd_DIAVER_03.log	Energy: -548603.5650968
N          4.24294        0.45087       -1.02083
C          4.40143        0.39983        0.30552
N          3.51888       -0.05051        1.20784
C          2.37263       -0.52921        0.72723
C          2.08659       -0.56280       -0.65878
C          3.08099       -0.04018       -1.46175
C          0.81146       -1.15041       -1.20332
C         -0.46064       -0.43198       -0.77865
C         -1.59563       -1.17628       -0.41563
C         -2.78008       -0.55242       -0.04978
C         -2.84892        0.85975       -0.03613
C         -1.72651        1.59380       -0.38850
C         -0.53934        0.95066       -0.75469
O         -4.04392        1.38286        0.33957
C         -4.15069        2.78795        0.37525
O         -3.91834       -1.19429        0.31525
C         -3.89779       -2.60381        0.31466
N          1.48593       -1.03172        1.64185
N          5.59989        0.83662        0.79830
H          2.93775       -0.01541       -2.54395
H          0.73462       -2.20492       -0.90271
H          0.87396       -1.15392       -2.29982
H         -1.53622       -2.26117       -0.43221
H         -1.75864        2.67845       -0.38010
H          0.33151        1.54624       -1.01808
H         -5.17056        3.00394        0.69724
H         -3.44314        3.22745        1.09103
H         -3.98192        3.23110       -0.61518
H         -3.68810       -3.00404       -0.68604
H         -4.89430       -2.91918        0.62763
H         -3.15470       -2.99623        1.02177
H          1.70208       -0.79518        2.59966
H          0.50492       -1.00607        1.40030
H          6.15462        1.40362        0.17725
H          5.63164        1.05054        1.78200
