50
omegapdb_1xom_01.log	Energy: -710694.9037199
O         -5.63666        2.07528        0.74471
C         -5.34361        1.15526       -0.19935
O         -6.18823        0.68661       -0.92352
C         -3.86854        0.81970       -0.22224
C         -3.37874        0.35415        1.15901
C         -1.88707        0.02240        1.12481
C         -1.52825       -1.02815        0.04173
C         -2.07101       -0.55697       -1.33250
C         -3.56191       -0.22221       -1.29803
C         -2.22221       -2.28481        0.39354
N         -2.79313       -3.25182        0.67337
C         -0.01604       -1.26276       -0.00960
C          0.56793       -2.49048        0.26991
C          1.95365       -2.65919        0.21561
C          2.78331       -1.59695       -0.12158
O          4.13664       -1.66627       -0.21943
C          4.74270       -2.92103        0.01100
C          2.20341       -0.34147       -0.39736
C          0.82877       -0.19449       -0.33919
O          2.96806        0.72058       -0.78873
C          3.82617        1.29775        0.21399
C          4.56283        2.43667       -0.47777
C          3.52217        3.57034       -0.56120
C          2.51857        3.30480        0.59278
C          3.00643        2.01663        1.28436
H         -6.59496        2.22284        0.68418
H         -3.34518        1.75831       -0.46280
H         -3.56874        1.13116        1.90568
H         -3.94866       -0.53349        1.46570
H         -1.31392        0.93235        0.90545
H         -1.54958       -0.33893        2.10244
H         -1.86504       -1.32732       -2.08335
H         -1.49920        0.33245       -1.62581
H         -4.15017       -1.12652       -1.09920
H         -3.88460        0.14409       -2.27777
H         -0.05122       -3.34390        0.53283
H          2.37025       -3.63736        0.43154
H          5.81331       -2.76857       -0.13233
H          4.38387       -3.67369       -0.70226
H          4.55892       -3.27454        1.03374
H          0.43577        0.79246       -0.57232
H          4.48894        0.52190        0.61064
H          5.41334        2.73276        0.14831
H          4.95228        2.12862       -1.45220
H          3.99180        4.55577       -0.48246
H          3.00842        3.53473       -1.52632
H          2.46452        4.14120        1.29669
H          1.50907        3.16287        0.19211
H          3.67029        2.25332        2.12521
H          2.19262        1.39752        1.67677
