36
omegapdb_1qxw_24.log	Energy: -410430.7946754
C         -4.10118        0.72007       -0.66936
C         -4.45366       -0.65168       -0.16598
C         -3.10202       -0.07261        0.12515
N         -1.98937       -0.62400       -0.59816
C         -0.91817        0.30528       -0.90536
C          0.06263        0.66025        0.22472
C          0.88221       -0.52266        0.78741
N         -0.02394       -1.41934        1.51021
C          1.61600       -1.36504       -0.26520
C          2.67690       -0.71681       -1.16666
C          4.02005       -0.37049       -0.50568
C          4.07164        0.94185        0.27870
O         -0.59760        1.20091        1.35570
O          0.90498        1.64420       -0.33242
H         -4.57343        1.58106       -0.20414
H         -3.90615        0.82248       -1.73321
H         -4.48490       -1.45355       -0.89711
H         -5.16690       -0.73779        0.64895
H         -2.93364        0.25522        1.15412
H         -1.60693       -1.41100       -0.07783
H         -0.32743       -0.08405       -1.74369
H         -1.35858        1.24794       -1.25687
H          1.62217       -0.06315        1.46811
H          0.51434       -2.14500        1.97532
H         -0.50683       -0.88862        2.22956
H          2.09399       -2.19727        0.27421
H          0.84988       -1.83335       -0.89632
H          2.88326       -1.44361       -1.96288
H          2.26719        0.17284       -1.65705
H          4.32906       -1.20011        0.14624
H          4.77919       -0.31386       -1.29624
H          3.44890        0.91457        1.18014
H          3.73893        1.77995       -0.34545
H          5.09476        1.15803        0.60513
H         -1.17647        1.90525        1.03153
H          1.52739        1.90756        0.36050
