61
omegapdb_1v2k_03.log	Energy: -1425433.6718063
N          8.97272        3.44253       -0.14620
C          8.33142        3.16899        0.99213
C          7.34194        2.20968        1.14015
C          6.94964        1.44514        0.02387
C          7.62137        1.72870       -1.18152
C          8.59784        2.71157       -1.19932
N          5.97468        0.48238        0.10096
C          5.79322       -0.49806       -0.96580
C          5.20955       -1.78978       -0.40269
C          3.82979       -1.58048        0.24448
C          3.72930       -0.15288        0.83396
C          5.09212        0.39514        1.25236
C          2.72147       -1.76765       -0.79300
O          2.96588       -1.64386       -1.98688
N          1.45264       -2.02944       -0.34895
C          0.36337       -2.11613       -1.31570
C         -0.67034       -1.02761       -1.02948
N         -1.12550       -1.05320        0.36753
C         -0.02304       -1.04093        1.33200
C          1.00870       -2.13109        1.03319
S         -2.42506       -2.05102        0.70656
O         -2.39758       -3.23636       -0.14228
O         -2.46886       -2.17793        2.15553
C         -3.80806       -1.06675        0.17865
C         -4.26041       -0.07237        1.00416
C         -5.35989        0.72619        0.60612
C         -5.97704        0.47756       -0.64783
C         -5.48465       -0.57329       -1.46758
C         -4.42317       -1.33877       -1.06605
C         -7.07875        1.28008       -1.04861
C         -7.52768        2.27517       -0.22663
C         -6.92227        2.53305        1.02869
C         -5.86253        1.77025        1.43036
Cl        -8.87466        3.25948       -0.71129
H          8.63450        3.75432        1.86028
H          6.90979        2.04474        2.12133
H          7.36873        1.21601       -2.10319
H          9.11007        2.93066       -2.13602
H          5.14359       -0.11898       -1.76718
H          6.77151       -0.71612       -1.40651
H          5.13614       -2.52451       -1.20803
H          5.90299       -2.18525        0.34900
H          3.71749       -2.31560        1.04943
H          3.31253        0.52708        0.07992
H          3.05196       -0.12701        1.69591
H          5.52297       -0.22657        2.05518
H          4.95012        1.39912        1.66496
H         -0.11260       -3.10109       -1.23910
H          0.79249       -1.99682       -2.31099
H         -0.22852       -0.03870       -1.20164
H         -1.53271       -1.12485       -1.69552
H          0.45348       -0.05492        1.25530
H         -0.43410       -1.15451        2.33639
H          0.55263       -3.11865        1.19179
H          1.85005       -2.04111        1.72099
H         -3.78543        0.09904        1.96704
H         -5.97127       -0.76925       -2.41989
H         -4.05584       -2.16267       -1.67044
H         -7.55904        1.09823       -2.00585
H         -7.31060        3.33202        1.65227
H         -5.38947        1.95552        2.39164
