35
omegacsd_DIAVER_06.log	Energy: -548600.2377473
N          2.61826       -1.67427       -0.56009
C          3.86675       -1.28002       -0.29434
N          4.25752       -0.06828        0.12257
C          3.29710        0.84388        0.25906
C          1.93511        0.56630        0.00117
C          1.68364       -0.73045       -0.40552
C          0.88378        1.64493        0.15773
C         -0.52832        1.19764       -0.14388
C         -1.26639        0.52081        0.83620
C         -2.55893        0.07717        0.57848
C         -3.12865        0.30629       -0.69025
C         -2.39564        0.97398       -1.65540
C         -1.10142        1.42244       -1.38796
O         -4.41536       -0.07494       -0.96295
C         -4.59367       -1.47724       -1.10006
O         -3.34853       -0.57245        1.47507
C         -2.82168       -0.79992        2.76449
N          3.70411        2.09804        0.63252
N          4.85755       -2.20290       -0.48811
H          0.66180       -1.03885       -0.62366
H          0.91272        2.03768        1.18677
H          1.13978        2.49189       -0.49463
H         -0.81000        0.34889        1.80700
H         -2.86372        1.14522       -2.62074
H         -0.53919        1.94571       -2.15789
H         -5.64576       -1.63052       -1.34946
H         -4.35903       -2.00113       -0.16772
H         -3.96677       -1.87102       -1.91116
H         -1.92379       -1.43048        2.72768
H         -2.57970        0.14419        3.26913
H         -3.60406       -1.31691        3.32222
H          4.65267        2.15394        0.97260
H          3.03960        2.71449        1.07222
H          4.56086       -3.16386       -0.54752
H          5.74354       -2.01312       -0.04825
