46
omegacsd_CDBMPI10_09.log	Energy: -649538.9147118
O         -3.01122        2.13798       -0.29297
C         -2.59329        1.03924        0.04624
N         -1.32381        0.86100        0.55496
C         -0.55980       -0.38070        0.36921
C          0.46209       -0.19187       -0.77215
N          1.30105        0.98689       -0.55539
C          0.46832        2.20275       -0.46586
C         -0.50426        2.06551        0.70597
C          1.24226        3.51438       -0.45872
C          2.44238        0.87170        0.21851
O          2.75849        1.68440        1.07531
C          3.34791       -0.29520       -0.07312
C          3.55024       -0.77944       -1.36680
C          4.45630       -1.81028       -1.59265
C          5.15806       -2.36686       -0.52645
C          4.96560       -1.87983        0.76413
C          4.07184       -0.83918        0.98781
C          0.10134       -0.83531        1.67081
C         -3.50860       -0.15401       -0.02828
C         -4.39380       -0.22100       -1.10458
C         -5.31242       -1.25992       -1.19316
C         -5.37135       -2.22544       -0.19121
C         -4.51055       -2.14771        0.90002
C         -3.57981       -1.11691        0.98010
H         -1.25699       -1.15533        0.04184
H          1.08067       -1.08730       -0.85558
H         -0.07550       -0.06107       -1.71987
H         -0.13759        2.18426       -1.38284
H          0.05957        2.01093        1.64382
H         -1.17924        2.92076        0.74556
H          1.72469        3.70205        0.50036
H          0.54510        4.32965       -0.67942
H          2.01339        3.50668       -1.23568
H          3.00941       -0.33171       -2.19743
H          4.61889       -2.17645       -2.60302
H          5.86362       -3.17474       -0.70328
H          5.51958       -2.30668        1.59606
H          3.93019       -0.42505        1.98233
H          0.64392       -1.77403        1.51342
H         -0.65448       -1.00017        2.44532
H          0.81393       -0.09720        2.05275
H         -4.35754        0.55924       -1.85944
H         -5.99277       -1.31065       -2.03925
H         -6.09645       -3.03279       -0.25508
H         -4.56729       -2.88792        1.69385
H         -2.91864       -1.04635        1.84088
