25
omegapdb_1m5f_22.log	Energy: -499677.1144566
O          2.46529       -1.12570        1.12796
C          2.44338       -0.49852       -0.07054
O          3.21683       -0.75657       -0.95424
C          1.41307        0.57626       -0.10872
N          1.67459        1.64478       -0.81601
O          0.59957        2.46982       -0.64110
C         -0.30490        1.88345        0.16787
C          0.15106        0.66182        0.55673
C         -0.53168       -0.37146        1.39792
C         -1.10331       -1.53068        0.55758
N         -0.05837       -2.18489       -0.20737
C         -2.17912       -1.06681       -0.40983
O         -2.29652       -1.45207       -1.54712
O         -3.05032       -0.20773        0.15529
C         -1.53435        2.67135        0.45590
H          3.18520       -1.77483        1.06181
H          0.18304       -0.79636        2.10934
H         -1.33894        0.08488        1.97900
H         -1.62931       -2.20897        1.25374
H         -0.45320       -2.60961       -1.04086
H          0.39735       -2.90176        0.34477
H         -3.71303       -0.01223       -0.52814
H         -1.28124        3.60631        0.96573
H         -2.05288        2.92580       -0.47396
H         -2.21419        2.09314        1.08435
