18
Properties=species:S:1:pos:R:3:forces:R:3 energy=-6416.002487496516 stress="0.0 0.0 0.0 0.0 0.0 0.0 0.0 0.0 0.0" pbc="F F F"
C          4.57030       -2.16060       -1.25760
H          4.24040       -2.94500       -0.56740
H          5.65340       -2.05270       -1.14210
C          3.82290       -0.85240       -0.97260
H          4.04530       -0.55500        0.06530
C          2.31130       -1.07640       -1.07640
H          1.98060       -1.85600       -0.38200
H          2.04300       -1.39370       -2.09160
H          1.75580       -0.16080       -0.84650
C          4.24690        0.28030       -1.88420
H          3.44140        0.94340       -2.21460
C          5.48840        0.54720       -2.28050
H          6.30800       -0.09980       -1.96820
C          5.87560        1.70420       -3.15130
H          6.37500        1.35810       -4.06420
H          6.58300        2.36440       -2.63490
H          4.37010       -2.50230       -2.28010
H          5.00270        2.29830       -3.44190
