18
Properties=species:S:1:pos:R:3:forces:R:3 energy=-12980.083496285428 stress="0.0 0.0 0.0 0.0 0.0 0.0 0.0 0.0 0.0" pbc="F F F"
C          4.47230      -23.15940       -0.00460
H          5.02600      -24.09460        0.01470
C          3.08280      -23.14840        0.00470
H          2.53300      -24.08580        0.01490
C          2.39620      -21.93640        0.00850
H          1.30930      -21.92860        0.01800
C          3.10080      -20.73430        0.00580
H          2.56460      -19.78840        0.01430
C          4.49050      -20.74130       -0.00900
H          5.04630      -19.80800       -0.01940
C          5.17990      -21.95650       -0.03200
N          7.41690      -22.90850        0.49470
C          8.69940      -22.41400        0.32080
H          9.57230      -22.96700        0.63780
C          8.63240      -21.20520       -0.27450
H          9.35010      -20.46870       -0.59930
O          7.31540      -20.91470       -0.47950
C          6.64690      -21.99180       -0.00280
