17
Properties=species:S:1:pos:R:3:forces:R:3 energy=-22204.7399485035 stress="0.0 0.0 0.0 0.0 0.0 0.0 0.0 0.0 0.0" pbc="F F F"
C         30.11800      -21.09460       -0.01190
H         30.68550      -20.16900       -0.02330
C         28.72970      -21.08930       -0.00790
H         28.18250      -20.15090       -0.01070
C         28.05720      -22.30550        0.00110
H         26.97210      -22.35350        0.00670
C         28.81120      -23.47470        0.00120
H         28.32480      -24.44870        0.00600
N         30.14330      -23.49850       -0.00880
C         30.77960      -22.32460       -0.01070
N         32.97790      -23.10300       -0.80720
C         34.31630      -22.92140       -0.56440
H         35.03110      -23.46270       -1.17100
C         34.62880      -22.06240        0.44470
H         35.60640      -21.77550        0.80620
S         33.18840      -21.42980        1.13100
C         32.26690      -22.38160        0.00280
