17
Properties=species:S:1:pos:R:3:forces:R:3 energy=-12850.40394358423 stress="0.0 0.0 0.0 0.0 0.0 0.0 0.0 0.0 0.0" pbc="F F F"
C         15.73300      -21.97010       -0.00740
H         14.77760      -21.45680       -0.00030
C         15.81670      -23.36330        0.01640
H         14.91580      -23.97110        0.04280
C         17.05700      -23.96880        0.01010
H         17.15790      -25.05150        0.03570
C         18.20440      -23.15400       -0.02690
N         18.13430      -21.82260       -0.05640
C         16.91890      -21.25900       -0.04100
H         16.90490      -20.17140       -0.06210
N         19.44780      -23.77110        0.01160
H         19.44470      -24.78050        0.03770
C         20.73310      -23.30620       -0.33280
N         20.87270      -21.96490       -0.42450
H         21.77330      -21.62270       -0.71660
H         20.06450      -21.35990       -0.34550
O         21.62630      -24.12010       -0.49030
