18
Properties=species:S:1:pos:R:3:forces:R:3 energy=-21768.61893211127 stress="0.0 0.0 0.0 0.0 0.0 0.0 0.0 0.0 0.0" pbc="F F F"
C         21.79560      -23.57390       -0.02980
H         22.31090      -24.53050       -0.05510
C         20.40580      -23.54280       -0.02070
H         19.84970      -24.47600       -0.03890
C         19.72880      -22.32640        0.01150
H         18.64220      -22.30730        0.01850
C         20.44750      -21.13390        0.03470
H         19.92500      -20.18110        0.05990
C         21.83600      -21.15930        0.02570
H         22.41330      -20.23950        0.04350
C         22.51990      -22.37870       -0.00660
N         24.69250      -21.26120        0.00610
C         26.03490      -21.53140       -0.00830
H         26.73830      -20.70760        0.00650
C         26.37540      -22.84720       -0.04080
H         27.36360      -23.28260       -0.05680
S         24.95580      -23.81170       -0.05450
C         23.99420      -22.35990       -0.01510
