13
Properties=species:S:1:pos:R:3:forces:R:3 energy=-18603.30558345811 stress="0.0 0.0 0.0 0.0 0.0 0.0 0.0 0.0 0.0" pbc="F F F"
C         -1.16230       -1.37890       -0.61780
H         -0.46720       -1.13790       -1.42550
H         -0.99190       -0.74520        0.25540
H         -2.19070       -1.25650       -0.96460
S         -0.98850       -3.09320       -0.16680
O         -1.16470       -3.88960       -1.36790
N          0.59510       -3.29050        0.27110
H          1.15120       -3.52380       -0.54170
O         -1.80160       -3.29630        1.01840
C          1.19980       -2.37170        1.22640
H          0.57630       -2.33020        2.12320
H          1.34010       -1.35550        0.83410
H          2.17610       -2.77250        1.50650
