10
Properties=species:S:1:pos:R:3:forces:R:3 energy=-6263.495285098261 stress="0.0 0.0 0.0 0.0 0.0 0.0 0.0 0.0 0.0" pbc="F F F"
O          1.17570       -3.07670        2.51360
H          1.98500       -2.87500        2.02670
C          0.20550       -3.42110        1.56360
H         -0.66800       -3.76860        2.12990
H         -0.06940       -2.53820        0.96440
O          0.66330       -4.39330        0.66480
C          0.22030       -5.70180        0.96630
H          0.65430       -6.36410        0.21460
H          0.55570       -6.01810        1.96350
H         -0.87630       -5.77980        0.92530
