16
Properties=species:S:1:pos:R:3:forces:R:3 energy=-9433.48240344971 stress="0.0 0.0 0.0 0.0 0.0 0.0 0.0 0.0 0.0" pbc="F F F"
C         -2.11530        1.07490       -0.84540
H         -2.65080        1.85700       -0.31280
C         -2.81920        0.02060       -1.42670
H         -3.90210       -0.02410       -1.34990
C         -2.12160       -0.96820       -2.10660
H         -2.65790       -1.79340       -2.57060
C         -0.73200       -0.91810       -2.21340
H         -0.20490       -1.69340       -2.76060
C         -0.03600        0.13210       -1.61590
C         -0.73370        1.13600       -0.93810
H         -0.16520        1.94420       -0.48640
O          1.32050        0.25800       -1.63720
C          2.02300       -0.44910       -2.63630
H          3.05020       -0.08230       -2.60260
H          1.60010       -0.26600       -3.63240
H          2.02170       -1.52990       -2.44020
