22
Properties=species:S:1:pos:R:3:forces:R:3 energy=-15303.3778360209 stress="0.0 0.0 0.0 0.0 0.0 0.0 0.0 0.0 0.0" pbc="F F F"
C         12.80070      -34.54200        0.26850
H         13.31480      -35.49570        0.29120
C         11.42130      -34.51030        0.43720
H         10.88080      -35.44380        0.56980
C         10.73230      -33.30260        0.43310
H          9.65360      -33.28440        0.56080
C         11.44180      -32.11810        0.26440
H         10.92180      -31.16330        0.26110
C         12.82160      -32.14720        0.11010
H         13.34700      -31.20810       -0.04210
C         13.52830      -33.35750        0.09160
C         17.15190      -32.22490        0.41270
H         17.68030      -31.33900        0.75380
C         15.76340      -32.24130        0.42390
H         15.24420      -31.37110        0.81380
C         15.02100      -33.35060       -0.00730
C         15.77780      -34.44850       -0.43050
C         17.16310      -34.46040       -0.45690
H         17.67020      -35.35340       -0.80950
C         17.85850      -33.33730       -0.03090
H         18.94410      -33.33310       -0.04420
F         15.16130      -35.56010       -0.89240
