16
Properties=species:S:1:pos:R:3:forces:R:3 energy=-11813.12960151473 stress="0.0 0.0 0.0 0.0 0.0 0.0 0.0 0.0 0.0" pbc="F F F"
C         12.25940      -11.10340        0.59220
N         13.48210      -10.78630        0.01230
H         13.46140       -9.89800       -0.46990
N         14.87180      -12.73670        0.37210
C         16.23270      -12.93680        0.24390
H         16.67780      -13.90300        0.43330
C         16.86220      -11.79330       -0.12890
H         17.89810      -11.56290       -0.32460
N         15.85110      -10.85120       -0.25050
H         15.97230       -9.86700       -0.42010
C         14.68780      -11.47950        0.07180
O         11.34130      -10.31810        0.46590
C         12.14580      -12.40550        1.33750
H         12.87490      -12.45110        2.14970
H         11.13170      -12.47810        1.72940
H         12.37160      -13.24890        0.68110
