13
Properties=species:S:1:pos:R:3:forces:R:3 energy=-18603.32750357093 stress="0.0 0.0 0.0 0.0 0.0 0.0 0.0 0.0 0.0" pbc="F F F"
C         -1.11370       -1.38880       -0.60510
H         -0.94870       -0.77640        0.28340
H         -2.12130       -1.22880       -0.99250
H         -0.36980       -1.17430       -1.37450
S         -0.99060       -3.10930       -0.16770
O         -1.78750       -3.31690        1.03260
N          0.62600       -3.25890        0.24990
H          0.69920       -3.12080        1.25360
O         -1.22580       -3.88800       -1.37250
C          1.30240       -4.48660       -0.19170
H          1.18930       -4.57180       -1.27320
H          0.91690       -5.39900        0.28240
H          2.36210       -4.37410        0.04740
