16
Properties=species:S:1:pos:R:3:forces:R:3 energy=-20705.178214446696 stress="0.0 0.0 0.0 0.0 0.0 0.0 0.0 0.0 0.0" pbc="F F F"
C         28.65840       -4.58640       -1.13020
N         29.43820       -4.75010        0.00510
H         29.03470       -4.33110        0.83590
C         31.10530       -6.59540        0.02260
H         30.38410       -7.40470        0.01860
C         32.51780       -6.77600        0.01110
H         33.00170       -7.74720       -0.01680
C         33.19730       -5.59690        0.04160
H         34.26890       -5.44170        0.04310
S         32.13660       -4.24310        0.09740
C         30.73530       -5.28170        0.04660
O         27.56290       -4.07150       -1.03950
C         29.24470       -5.07230       -2.43390
H         30.32890       -4.93430       -2.47770
H         28.75900       -4.53300       -3.24860
H         29.03170       -6.13990       -2.55960
