14
Properties=species:S:1:pos:R:3:forces:R:3 energy=-8266.701194390811 stress="0.0 0.0 0.0 0.0 0.0 0.0 0.0 0.0 0.0" pbc="F F F"
C          1.09830       -1.84340        0.58190
H          1.90870       -1.21200        0.20760
H          0.15100       -1.50360        0.13860
H          1.03660       -1.69900        1.66500
N          1.41440       -3.24240        0.28500
H          1.44760       -3.37430       -0.72030
C          0.53240       -4.22390        0.78260
N          0.58980       -4.35700        2.14650
H          1.41010       -3.95770        2.57850
C          0.01270       -5.53130        2.77100
H          0.66370       -6.41290        2.70440
H         -0.19310       -5.31590        3.82220
H         -0.92430       -5.76320        2.26370
O         -0.15230       -4.92850        0.06150
