19
Properties=species:S:1:pos:R:3:forces:R:3 energy=-12882.613781940461 stress="0.0 0.0 0.0 0.0 0.0 0.0 0.0 0.0 0.0" pbc="F F F"
C         26.08370      -10.99410        0.64450
N         27.32500      -10.61200        0.14540
H         27.29630       -9.70440       -0.30140
N         28.71620      -12.58090        0.36680
C         30.07930      -12.75620        0.26080
H         30.53370      -13.73220        0.36620
C         30.70340      -11.57070        0.02220
H         31.74080      -11.30510       -0.11650
N         29.69830      -10.62140       -0.02700
C         28.53430      -11.29660        0.18290
O         25.15080      -10.22680        0.51510
C         25.97150      -12.33670        1.31460
H         26.69180      -12.42160        2.13150
H         26.21730      -13.13600        0.61180
H         24.95250      -12.44280        1.68480
C         29.86350       -9.19790       -0.22710
H         30.93280       -8.97820       -0.21430
H         29.38920       -8.62880        0.58070
H         29.45910       -8.87060       -1.19280
