17
Properties=species:S:1:pos:R:3:forces:R:3 energy=-11376.549567579024 stress="0.0 0.0 0.0 0.0 0.0 0.0 0.0 0.0 0.0" pbc="F F F"
C         19.80380      -29.12970        0.44440
N         19.92000      -30.39720       -0.06640
H         19.07610      -30.88970       -0.31600
C         21.23310      -32.53230       -0.18130
H         20.43560      -33.24950       -0.32670
C         22.63040      -32.79960       -0.08630
H         23.11450      -33.76510       -0.15220
C         23.26940      -31.60120        0.10760
H         24.31630      -31.36530        0.22920
N         22.31900      -30.60820        0.12550
H         22.42190      -29.63690        0.38600
C         21.09130      -31.17260       -0.04980
O         20.76610      -28.48290        0.82990
C         18.38580      -28.59570        0.46580
H         17.74580      -29.20400        1.11430
H         17.94810      -28.60350       -0.53830
H         18.40600      -27.57250        0.84160
