16
Properties=species:S:1:pos:R:3:forces:R:3 energy=-20705.18196070089 stress="0.0 0.0 0.0 0.0 0.0 0.0 0.0 0.0 0.0" pbc="F F F"
C         28.72310       -4.41400       -1.12710
N         29.42800       -4.75360        0.02040
H         29.01960       -4.37080        0.86660
C         31.10230       -6.58490        0.00920
H         30.37760       -7.39040       -0.01750
C         32.51510       -6.76560       -0.00300
H         32.99900       -7.73640       -0.04250
C         33.19480       -5.58730        0.04320
H         34.26660       -5.43280        0.04850
S         32.13520       -4.23330        0.11230
C         30.73220       -5.27210        0.04650
O         27.67460       -3.81020       -1.03300
C         29.31650       -4.86110       -2.44120
H         30.40390       -4.74600       -2.46550
H         28.85450       -4.27950       -3.24050
H         29.08600       -5.91910       -2.60730
