22
astex_1n2j_00.log	Energy:    -199.2418167
O         -1.66456        1.58131        0.46381
C         -1.50385        0.53143       -0.10517
O         -2.51976       -0.38359       -0.08680
C         -0.25493        0.05647       -0.86890
O         -0.47938       -1.33051       -1.13786
C          1.07392        0.31690       -0.10564
C          1.33065        1.82598       -0.04478
C          2.21177       -0.39180       -0.84942
C          0.97480       -0.22769        1.34467
O          0.41098       -1.55937        1.31506
H         -2.30294       -1.21537       -0.63263
H         -0.24002        0.52985       -1.88067
H         -0.01885       -1.89650       -0.43225
H          1.50148        2.25074       -1.04096
H          2.21520        2.06442        0.55629
H          0.47846        2.37216        0.39329
H          3.18583       -0.17786       -0.39541
H          2.07902       -1.48272       -0.83917
H          2.26805       -0.08393       -1.90004
H          0.36713        0.42438        1.99393
H          1.97602       -0.36311        1.79449
H         -0.48177       -1.55248        1.72490
