22
astex_1n2j_17.log	Energy:    -190.8086727
O         -2.00401        0.17475        1.36970
C         -1.72504        0.17234        0.19858
O         -2.40945        1.04125       -0.61635
C         -0.65972       -0.71296       -0.46220
O         -0.68615       -1.98526        0.16942
C          0.75888       -0.05527       -0.40936
C          0.72409        1.27884       -1.16112
C          1.75655       -1.01934       -1.05722
C          1.16195        0.19004        1.06820
O          2.45736        0.82001        1.00815
H         -2.15071        1.02187       -1.56669
H         -0.92589       -0.96762       -1.51674
H         -0.63873       -1.89222        1.15407
H          0.52897        1.15579       -2.22922
H          1.71033        1.76968       -1.07089
H         -0.00134        1.98666       -0.74584
H          1.63813       -1.07786       -2.14283
H          2.78786       -0.69180       -0.85299
H          1.64826       -2.03704       -0.65756
H          1.26037       -0.75840        1.62580
H          0.45545        0.86090        1.58930
H          2.72501        1.10216        1.90500
