43
astex_1meh_15.log	Energy:    -238.7256912
C         -3.16978       -2.43981       -0.04150
O         -2.83024       -3.54427       -0.37924
C         -2.50257       -1.13635       -0.14508
C         -3.34776       -0.13817        0.41029
C         -4.59976       -0.82054        0.89337
O         -4.41498       -2.24677        0.57416
C         -2.97762        1.19003        0.44703
C         -3.83796        2.24107        1.05662
C         -1.69556        1.50484       -0.10814
C         -0.82726        0.55567       -0.65079
C         -1.25405       -0.80450       -0.66079
O         -0.41216       -1.72199       -1.20332
C          0.53212        0.92339       -1.17401
C          1.51882        1.00072       -0.04432
C          2.50091        0.11634        0.18365
C          3.43832        0.31121        1.35539
C          4.81959        0.79719        0.90552
C          5.63038       -0.26149        0.20213
O          6.25683       -0.14088       -0.81765
O          5.69055       -1.50097        0.81533
C          2.75364       -1.08441       -0.66652
O         -1.23728        2.81751       -0.02169
C         -1.74420        3.69397       -1.06269
H         -5.51634       -0.51601        0.36019
H         -4.74414       -0.77986        1.98666
H         -3.25315        3.14046        1.31305
H         -4.64390        2.54961        0.37638
H         -4.30543        1.89669        1.98973
H         -0.81123       -2.65255       -1.17796
H          0.49009        1.91057       -1.68579
H          0.84975        0.19332       -1.95121
H          1.36047        1.86100        0.60867
H          3.01541        1.04621        2.07364
H          3.52252       -0.63513        1.93022
H          5.39780        1.18385        1.77094
H          4.70578        1.66941        0.21994
H          5.14763       -1.58299        1.63414
H          1.81014       -1.57394       -0.96450
H          3.28001       -0.80978       -1.59387
H          3.36519       -1.84996       -0.17293
H         -1.29335        4.65574       -0.78766
H         -2.83566        3.74258       -1.03159
H         -1.38694        3.35475       -2.03954
