43
astex_1meh_01.log	Energy:    -245.6541966
C         -3.63713       -2.31230        0.07831
O         -3.43037       -3.46585       -0.19732
C         -2.83260       -1.10015       -0.11553
C         -3.54859        0.01663        0.39360
C         -4.85905       -0.49050        0.93290
O         -4.83803       -1.94570        0.70328
C         -3.02950        1.29350        0.34892
C         -3.76621        2.47732        0.86986
C         -1.73128        1.43093       -0.24080
C         -0.99810        0.36480       -0.76531
C         -1.57710       -0.93580       -0.69139
O         -0.85719       -1.96632       -1.20365
C          0.33829        0.55368       -1.42189
C          1.47110        0.20548       -0.50303
C          2.62658        0.88120       -0.41657
C          3.71703        0.41593        0.51840
C          4.61379       -0.61832       -0.17148
C          5.76514       -1.00739        0.70371
O          6.19671       -0.51038        1.71611
O          6.38127       -2.12590        0.18074
C          2.94701        2.10354       -1.21567
O         -1.25207        2.73061       -0.37692
C         -0.26113        3.10834        0.61688
H         -5.74517       -0.11897        0.39011
H         -4.97988       -0.36564        2.02238
H         -4.78085        2.54078        0.45249
H         -3.85348        2.45013        1.96462
H         -3.25541        3.41854        0.60291
H         -1.35396       -2.84444       -1.11974
H          0.42417        1.59830       -1.80329
H          0.40121       -0.10040       -2.32511
H          1.29485       -0.68951        0.09793
H          4.33165        1.27253        0.86964
H          3.28425       -0.01773        1.44473
H          5.00493       -0.22090       -1.13527
H          4.02771       -1.52119       -0.45818
H          7.16013       -2.42490        0.72055
H          3.71216        1.88638       -1.97457
H          2.06936        2.50029       -1.74879
H          3.33751        2.91342       -0.58544
H         -0.72548        3.12604        1.60672
H          0.59699        2.42803        0.58756
H          0.01738        4.11617        0.28731
