34
astex_1of1_11.log	Energy:    -159.7770939
O          3.54849        2.14996        1.28589
C          3.24915        1.48426        0.05507
C          2.89948        0.00779        0.30362
C          2.70384       -0.75825       -1.04156
O          3.39596       -2.01922       -0.98389
C          1.21736       -1.14678       -1.19555
C          0.54608       -0.76024        0.11586
N         -0.82390       -0.26237        0.00828
C         -1.02248        1.07091       -0.47912
O         -0.10140        1.78419       -0.82576
N         -2.36957        1.49365       -0.53900
C         -3.51413        0.69650       -0.17681
O         -4.60248        1.21812       -0.28403
C         -3.19048       -0.66454        0.27627
C         -1.90420       -1.09337        0.35497
C         -4.34018       -1.54033        0.63882
C          1.57407       -0.08955        1.04660
C          1.01840       -1.46344        1.38368
H          4.32060        1.74203        1.72347
H          2.37201        2.05684       -0.32554
H          4.10015        1.60002       -0.63711
H          3.70351       -0.48422        0.89733
H          3.08119       -0.19053       -1.91508
H          4.36129       -1.89396       -1.03309
H          1.13051       -2.23426       -1.39640
H          0.76167       -0.62476       -2.05675
H         -2.53817        2.45607       -0.86937
H         -1.64276       -2.10603        0.69000
H         -4.40684       -2.41775       -0.01954
H         -5.30079       -1.00178        0.54903
H         -4.27265       -1.89647        1.67592
H          1.33056        0.76492        1.68380
H          1.65105       -2.34775        1.27900
H          0.35695       -1.56360        2.24063
