43
astex_1meh_22.log	Energy:    -236.5072822
C          3.50901       -2.20562        0.02066
O          3.36465       -3.36992        0.25290
C          2.65131       -1.00461        0.07209
C          3.41102        0.12427       -0.32895
C          4.80324       -0.34154       -0.65963
O          4.79145       -1.78263       -0.41776
C          2.87776        1.40016       -0.38331
C          3.67103        2.56885       -0.85502
C          1.51302        1.52595        0.00388
C          0.71629        0.44390        0.39222
C          1.30836       -0.85232        0.41695
O          0.63558       -1.97115        0.78157
C         -0.72366        0.64704        0.76833
C         -1.65535       -0.09053       -0.14641
C         -2.70619       -0.82689        0.24670
C         -3.59718       -1.49814       -0.77297
C         -4.50017       -0.50195       -1.50970
C         -5.49489        0.14029       -0.57343
O         -6.66009       -0.12894       -0.44804
O         -5.00938        1.16227        0.22034
C         -3.09988       -1.03564        1.67145
O          0.88715        2.76837       -0.08894
C          1.20244        3.68082        0.99592
H          5.58472        0.07095        0.00178
H          5.07996       -0.21418       -1.72085
H          4.34293        2.94618       -0.07164
H          3.01841        3.39956       -1.16997
H          4.29138        2.31462       -1.72653
H         -0.33805       -1.80520        0.94210
H         -0.87797        0.36725        1.83499
H         -0.97059        1.73722        0.71429
H         -1.41309        0.02520       -1.20604
H         -2.97706       -2.04428       -1.51719
H         -4.22324       -2.28289       -0.29544
H         -5.06067       -1.03263       -2.31307
H         -3.89663        0.26690       -2.03346
H         -4.03994        1.33039        0.13488
H         -2.39696       -0.58649        2.38744
H         -4.08887       -0.58844        1.87650
H         -3.18143       -2.10314        1.92230
H          2.27929        3.85704        1.06097
H          0.66913        4.58977        0.69009
H          0.80691        3.28387        1.93540
