43
astex_1meh_31.log	Energy:    -234.5611831
C          2.26951       -2.80370       -0.26563
O          1.87286       -3.78624       -0.82065
C          1.95362       -1.36194       -0.32032
C          2.77790       -0.67258        0.60636
C          3.65988       -1.68196        1.29003
O          3.29342       -2.96938        0.70275
C          2.70689        0.69703        0.78849
C          3.54249        1.40611        1.79661
C          1.76265        1.38934       -0.02306
C          0.92490        0.75903       -0.94784
C          1.02603       -0.65592       -1.08508
O          0.26281       -1.37614       -1.94561
C         -0.06392        1.55196       -1.75772
C         -1.49052        1.15767       -1.50421
C         -2.11905        1.28975       -0.32419
C         -3.56599        0.87762       -0.18078
C         -3.70122       -0.34157        0.73962
C         -5.14313       -0.77495        0.82602
O         -5.95687       -0.45903        1.65249
O         -5.57713       -1.63192       -0.16826
C         -1.47197        1.83091        0.90588
O          1.57767        2.75848        0.17399
C          2.57339        3.59535       -0.47212
H          3.47620       -1.78039        2.37412
H          4.73648       -1.55034        1.08498
H          4.56766        1.56420        1.43338
H          3.11971        2.39175        2.05117
H          3.61041        0.84363        2.73879
H         -0.40835       -0.81476       -2.42585
H          0.05467        2.63984       -1.52568
H          0.18212        1.46139       -2.83707
H         -2.01787        0.77701       -2.37731
H         -4.15438        1.72877        0.22976
H         -4.02177        0.66332       -1.16925
H         -3.34027       -0.08827        1.76291
H         -3.04408       -1.16711        0.39982
H         -4.89915       -1.88649       -0.83122
H         -0.94079        1.03684        1.45242
H         -0.71109        2.59733        0.67301
H         -2.18695        2.28832        1.60043
H          2.49505        3.48866       -1.55804
H          2.27336        4.59924       -0.14673
H          3.57825        3.34806       -0.11963
