34
astex_1of1_07.log	Energy:    -160.0877312
O          3.94060        2.10673        0.91419
C          3.28885        1.43474       -0.16921
C          2.90486        0.00513        0.24637
C          2.68074       -0.89876       -0.99988
O          3.39326       -2.10740       -0.68437
C          1.16639       -1.20107       -1.14021
C          0.53456       -0.72461        0.16069
N         -0.83493       -0.22253        0.06229
C         -1.03902        1.14226       -0.32041
O         -0.11739        1.90408       -0.54205
N         -2.39006        1.54308       -0.41977
C         -3.53456        0.70037       -0.17601
O         -4.62590        1.20816       -0.30687
C         -3.20208       -0.68202        0.20292
C         -1.91299       -1.09393        0.30730
C         -4.35950       -1.58338        0.45892
C          1.59379       -0.00833        1.02025
C          1.02910       -1.34953        1.46087
H          3.30799        2.28250        1.63875
H          2.40875        2.02112       -0.50159
H          4.06676        1.44335       -0.95661
H          3.73138       -0.43254        0.86528
H          3.10273       -0.47189       -1.93068
H          3.46378       -2.68829       -1.46420
H          0.99059       -2.27867       -1.30319
H          0.73807       -0.66966       -2.00956
H         -2.56336        2.52375       -0.68884
H         -1.64158       -2.12035        0.58756
H         -5.01707       -1.16750        1.24065
H         -4.98277       -1.68966       -0.44442
H         -4.06105       -2.58889        0.77741
H          1.36211        0.88566        1.59856
H          1.65943       -2.24146        1.40202
H          0.38370       -1.38920        2.33441
