43
astex_1meh_18.log	Energy:    -238.8498053
C         -3.22875       -2.38390        0.16661
O         -2.84848       -3.52044        0.05145
C         -2.56561       -1.09992       -0.09186
C         -3.46823       -0.04482        0.20948
C         -4.75675       -0.66737        0.67593
O         -4.52731       -2.12201        0.62620
C         -3.11247        1.27910        0.05863
C         -4.04755        2.39987        0.35029
C         -1.78394        1.52779       -0.41421
C         -0.86436        0.52402       -0.72329
C         -1.28404       -0.82882       -0.56052
O         -0.39950       -1.80622       -0.88846
C          0.51560        0.82906       -1.23215
C          1.49989        0.92026       -0.10295
C          2.49030        0.04730        0.13414
C          3.42630        0.25964        1.30438
C          4.79762        0.76967        0.85123
C          5.62020       -0.27236        0.13534
O          6.22137       -0.14063       -0.89772
O          5.72294       -1.50691        0.75215
C          2.75171       -1.15908       -0.70400
O         -1.44875        2.85471       -0.67692
C         -0.74921        3.51699        0.40860
H         -5.61588       -0.48157        0.00850
H         -5.01421       -0.44553        1.72541
H         -4.19164        2.53543        1.43088
H         -5.03554        2.23541       -0.10192
H         -3.67019        3.35398       -0.05619
H         -0.79700       -2.72739       -0.74939
H          0.50452        1.79265       -1.79343
H          0.81462        0.05805       -1.97739
H          1.34020        1.78961        0.54251
H          2.99323        0.98527        2.02504
H          3.52824       -0.68585        1.87800
H          4.66831        1.64415        0.17136
H          5.37478        1.15851        1.71632
H          5.20678       -1.59777        1.58630
H          3.22531       -0.88460       -1.65972
H          1.81319       -1.68677       -0.95042
H          3.41204       -1.89375       -0.22640
H         -1.39350        3.57082        1.29013
H          0.19385        2.99491        0.62728
H         -0.56362        4.51189       -0.01434
