43
astex_1meh_23.log	Energy:    -235.9135964
C         -2.13538        2.74383        0.39040
O         -1.46096        3.66446        0.75063
C         -1.96967        1.27799        0.33090
C         -3.13874        0.70295       -0.23252
C         -4.10670        1.81409       -0.53631
O         -3.41966        3.04046       -0.13320
C         -3.27477       -0.65907       -0.43136
C         -4.51535       -1.26111       -0.99288
C         -2.16501       -1.46432       -0.04326
C         -0.99980       -0.95069        0.53319
C         -0.91393        0.45877        0.72750
O          0.16306        1.07003        1.28403
C          0.11620       -1.86367        0.95544
C          1.40145       -1.53279        0.25866
C          2.58839       -1.35601        0.85976
C          3.80677       -0.98804        0.04900
C          3.84329        0.52355       -0.21510
C          5.03927        0.89489       -1.05367
O          5.91804        0.18223       -1.46054
O          5.13033        2.23197       -1.39299
C          2.81429       -1.48861        2.33040
O         -2.27460       -2.85044       -0.14922
C         -1.96884       -3.36755       -1.47170
H         -4.33408        1.93357       -1.60962
H         -5.03516        1.77644        0.06003
H         -4.57339       -1.12767       -2.08198
H         -4.56899       -2.34256       -0.78378
H         -5.41945       -0.81405       -0.55548
H          0.88841        0.42635        1.52981
H          0.22120       -1.83713        2.06426
H         -0.15871       -2.92473        0.73324
H          1.30470       -1.43932       -0.82499
H          3.82302       -1.54016       -0.91599
H          4.74107       -1.30346        0.56118
H          3.86988        1.07762        0.74751
H          2.90610        0.84371       -0.72047
H          4.40865        2.81090       -1.06470
H          3.35339       -0.62516        2.74369
H          1.88174       -1.60350        2.90232
H          3.42584       -2.37832        2.55026
H         -2.15527       -4.44126       -1.34444
H         -0.91932       -3.17181       -1.71136
H         -2.63807       -2.93436       -2.21986
