34
astex_1of1_14.log	Energy:    -162.1453854
O          1.68894        2.53709       -0.23082
C          2.90748        2.05184        0.35629
C          2.89861        0.52427        0.51272
C          2.91478       -0.20346       -0.87121
O          3.93905       -1.19375       -0.88505
C          1.52186       -0.83315       -1.10973
C          0.77196       -0.70868        0.20901
N         -0.66745       -0.48776        0.11144
C         -1.54277       -1.61731        0.02352
O         -1.13752       -2.76183        0.04423
N         -2.91589       -1.30039       -0.09067
C         -3.46955        0.03023       -0.13280
O         -4.67317        0.11783       -0.23667
C         -2.47236        1.10854       -0.04467
C         -1.14822        0.83727        0.06925
C         -3.00737        2.49791       -0.08273
C          1.63042        0.07448        1.22184
C          1.36970       -1.40834        1.42477
H          1.61723        2.24069       -1.16034
H          2.91932        2.56384        1.33891
H          3.76586        2.39905       -0.24616
H          3.80562        0.21739        1.08838
H          3.23040        0.46060       -1.70369
H          3.74996       -1.91924       -0.25397
H          1.61010       -1.89202       -1.42631
H          0.98666       -0.33021       -1.93389
H         -3.56994       -2.09550       -0.15018
H         -0.37893        1.62862        0.13820
H         -3.62276        2.65989       -0.98284
H         -2.21943        3.26109       -0.07623
H         -3.66440        2.68974        0.78138
H          1.20179        0.78740        1.92798
H          2.15344       -2.14856        1.28494
H          0.71274       -1.72215        2.23741
