34
astex_1of1_10.log	Energy:    -161.0981153
O          4.63075        1.79344        0.38409
C          3.22985        1.65204        0.63818
C          2.79256        0.18954        0.48544
C          2.61433       -0.21221       -1.01434
O          3.64824       -1.10567       -1.41381
C          1.21403       -0.84298       -1.20514
C          0.50838       -0.72998        0.13658
N         -0.91306       -0.39288        0.08883
C         -1.88114       -1.44780        0.16023
O         -1.57047       -2.61339        0.29348
N         -3.22925       -1.03019        0.07081
C         -3.67940        0.32834       -0.09093
O         -4.87521        0.50866       -0.14955
C         -2.59607        1.32342       -0.16383
C         -1.29369        0.95350       -0.07943
C         -3.02375        2.73934       -0.33451
C          1.46364       -0.09223        1.16838
C          1.04413       -1.54739        1.30432
H          4.87840        1.36648       -0.46491
H          3.13904        2.00633        1.68450
H          2.67459        2.33513       -0.02870
H          3.59595       -0.44940        0.93592
H          2.77571        0.64381       -1.70652
H          3.61231       -1.95100       -0.92109
H          0.65520       -0.33722       -2.01288
H          1.29214       -1.89867       -1.53285
H         -3.94546       -1.77111        0.12428
H         -0.47098        1.67779       -0.13356
H         -3.69621        3.04870        0.48329
H         -3.59612        2.86749       -1.26850
H         -2.18516        3.44460       -0.35913
H          1.12983        0.62603        1.91542
H          1.74724       -2.35610        1.11467
H          0.36595       -1.83716        2.10921
