43
astex_1meh_21.log	Energy:    -238.7070755
C          3.10352       -2.30253       -0.29096
O          3.01456       -3.40178        0.19230
C          2.40536       -1.04571        0.00639
C          2.88832       -0.03075       -0.86261
C          3.92814       -0.65449       -1.75486
O          4.00785       -2.06484       -1.33500
C          2.40926        1.26189       -0.80777
C          2.87675        2.32460       -1.73954
C          1.40315        1.52260        0.17727
C          0.88935        0.55210        1.04124
C          1.41156       -0.76910        0.93908
O          0.91575       -1.70845        1.78805
C         -0.20580        0.85896        2.02295
C         -1.53087        0.91789        1.31850
C         -2.46829       -0.04006        1.34932
C         -3.77100        0.14637        0.60425
C         -3.63759       -0.36188       -0.83670
C         -4.94526       -0.26464       -1.57709
O         -5.23441        0.48800       -2.46882
O         -5.92900       -1.15814       -1.18764
C         -2.33030       -1.32723        2.09540
O          0.82320        2.78730        0.22335
C          1.60620        3.77909        0.93873
H          3.65119       -0.68081       -2.82296
H          4.94516       -0.24922       -1.61832
H          2.15216        3.15441       -1.79944
H          2.99940        1.94576       -2.76409
H          3.84165        2.74534       -1.42446
H          1.36676       -2.60481        1.65158
H         -0.20812        0.10511        2.84124
H         -0.01055        1.83749        2.51501
H         -1.67202        1.83330        0.73850
H         -4.59459       -0.37470        1.13198
H         -4.06492        1.21846        0.59681
H         -3.24782       -1.40020       -0.85452
H         -2.86841        0.23991       -1.37481
H         -5.67894       -1.76248       -0.45593
H         -1.27560       -1.64592        2.17099
H         -2.71199       -1.23013        3.12133
H         -2.87317       -2.15106        1.61841
H          0.99527        4.68204        0.81193
H          2.59263        3.89964        0.48399
H          1.68324        3.49851        1.99321
