43
astex_1meh_10.log	Energy:    -236.6179229
C         -0.93480        2.77499       -0.69458
O         -0.13890        3.46665       -1.26102
C         -1.10833        1.31640       -0.52058
C         -2.25440        1.08167        0.28012
C         -2.85058        2.41359        0.64561
O         -1.99424        3.40762       -0.00421
C         -2.67149       -0.19556        0.61414
C         -3.85892       -0.44361        1.47700
C         -1.88169       -1.26622        0.10850
C         -0.73661       -1.08938       -0.67903
C         -0.35579        0.24400       -0.99378
O          0.74139        0.56401       -1.74113
C          0.05749       -2.28660       -1.13080
C          1.54436       -2.10926       -1.03875
C          2.20932       -1.73466        0.06815
C          3.69602       -1.46765        0.00288
C          3.97416        0.00320       -0.34017
C          3.54593        0.89884        0.80112
O          4.10225        1.02487        1.86217
O          2.39798        1.62905        0.61299
C          1.56627       -1.49254        1.38990
O         -2.20079       -2.56610        0.50275
C         -3.20557       -3.20459       -0.32861
H         -2.81105        2.64216        1.72560
H         -3.86470        2.58104        0.24424
H         -3.88374        0.23558        2.34140
H         -3.85484       -1.46828        1.88491
H         -4.79777       -0.30850        0.92230
H          1.18828       -0.24434       -2.12838
H         -0.23669       -2.54398       -2.17112
H         -0.23886       -3.17400       -0.51560
H          2.08074       -2.33541       -1.96008
H          4.18460       -1.72471        0.96877
H          4.18645       -2.11972       -0.74851
H          5.06465        0.14661       -0.50990
H          3.48430        0.28726       -1.29114
H          1.95759        1.53574       -0.27742
H          0.64256       -2.07545        1.52394
H          2.22622       -1.73754        2.23369
H          1.28846       -0.43014        1.51075
H         -2.82469       -3.32510       -1.34664
H         -3.32891       -4.17496        0.16864
H         -4.13633       -2.63071       -0.31456
