43
astex_1meh_26.log	Energy:    -235.6423989
C         -3.72199       -1.91960       -0.13118
O         -3.85624       -3.07603        0.14266
C         -2.69070       -0.89026        0.11133
C         -3.11044        0.33178       -0.47409
C         -4.44874        0.10518       -1.12359
O         -4.76363       -1.29913       -0.86942
C         -2.34822        1.48521       -0.41447
C         -2.77436        2.74978       -1.07529
C         -1.11327        1.38402        0.28734
C         -0.64775        0.20299        0.87421
C         -1.46213       -0.96162        0.76723
O         -1.11763       -2.16298        1.29533
C          0.67623        0.16834        1.58747
C          1.66560       -0.76142        0.94630
C          2.25403       -0.56036       -0.24443
C          3.23673       -1.57427       -0.78835
C          4.58981       -1.52980       -0.07110
C          5.36291       -0.27543       -0.40164
O          6.31961       -0.18116       -1.12455
O          4.93848        0.88547        0.21342
C          2.01692        0.62391       -1.11640
O         -0.25797        2.48633        0.31931
C         -0.62212        3.50243        1.29093
H         -5.27166        0.68700       -0.67349
H         -4.44139        0.22042       -2.22158
H         -1.92166        3.42962       -1.23590
H         -3.21394        2.56387       -2.06583
H         -3.52475        3.28636       -0.47805
H         -0.19958       -2.16384        1.68518
H          0.51671       -0.10519        2.65258
H          1.10536        1.20002        1.61733
H          1.89790       -1.65036        1.53245
H          3.38684       -1.42966       -1.88051
H          2.81103       -2.59749       -0.69933
H          5.20094       -2.40940       -0.37879
H          4.46168       -1.63222        1.02544
H          4.11253        0.79777        0.74747
H          1.48037        1.44165       -0.60459
H          1.39983        0.35530       -1.98739
H          2.95471        1.05130       -1.50286
H          0.13169        4.27748        1.10315
H         -1.63143        3.87827        1.10352
H         -0.53121        3.09384        2.30149
