34
astex_1of1_05.log	Energy:    -160.6892159
O          4.03443        2.08609        0.78787
C          3.27818        1.42517       -0.23311
C          2.90036        0.00770        0.22832
C          2.65634       -0.93427       -0.99045
O          3.26797       -2.21509       -0.75292
C          1.14756       -1.25059       -1.09226
C          0.52787       -0.71947        0.19299
N         -0.83895       -0.21329        0.08727
C         -1.03968        1.15933       -0.26683
O         -0.11635        1.93011       -0.44903
N         -2.38954        1.55895       -0.38266
C         -3.53621        0.70782       -0.18014
O         -4.62605        1.21627       -0.32027
C         -3.20692       -0.68175        0.17414
C         -1.91887       -1.09309        0.29218
C         -4.36624       -1.59134        0.38922
C          1.59825        0.02092        1.01740
C          1.03089       -1.30052        1.51059
H          3.46061        2.31136        1.54726
H          3.98456        1.41441       -1.08467
H          2.38631        2.02855       -0.49765
H          3.72694       -0.39789        0.86067
H          3.06661       -0.52669       -1.93592
H          4.23956       -2.13536       -0.69584
H          1.00020       -2.34510       -1.19820
H          0.70278       -0.78000       -1.98684
H         -2.56058        2.54464       -0.63408
H         -1.64884       -2.12515        0.55315
H         -5.03001       -1.20336        1.17981
H         -4.98214       -1.66602       -0.52241
H         -4.06995       -2.60766        0.67392
H          1.37353        0.93624        1.56552
H          1.64905       -2.20157        1.47563
H          0.39175       -1.30456        2.38986
