22
astex_1n2j_13.log	Energy:    -196.4713109
O         -2.31252       -1.08152       -0.73168
C         -1.56910       -0.36133       -0.10983
O         -1.91201        0.93354        0.07924
C         -0.24161       -0.83756        0.51529
O         -0.16861       -0.33981        1.85737
C          1.02327       -0.29093       -0.21412
C          0.80426       -0.35774       -1.72884
C          2.22079       -1.16228        0.19311
C          1.33150        1.16289        0.22799
O          0.29322        2.09401       -0.12515
H         -1.18491        1.49018        0.56478
H         -0.23746       -1.95245        0.52725
H         -0.79903       -0.82535        2.43487
H          1.72738       -0.13923       -2.27899
H          0.47475       -1.35541       -2.05110
H          0.04059        0.35093       -2.07558
H          2.10791       -2.19644       -0.15328
H          2.33586       -1.19386        1.28545
H          3.16118       -0.78933       -0.22803
H          1.36399        1.25045        1.33533
H          2.27907        1.52513       -0.20559
H          0.11549        2.06741       -1.09501
