43
astex_1meh_03.log	Energy:    -244.6574709
C         -3.47591       -1.88386       -0.30775
O         -3.68672       -2.96869        0.17016
C         -2.52438       -0.82505        0.04854
C         -2.69221        0.26782       -0.84479
C         -3.78259       -0.10171       -1.81475
O         -4.22244       -1.44901       -1.41277
C         -1.93172        1.41341       -0.74289
C         -2.07491        2.55349       -1.68958
C         -0.96325        1.43713        0.31226
C         -0.74727        0.38045        1.19689
C         -1.56236       -0.78222        1.05237
O         -1.36739       -1.79589        1.93270
C          0.32463        0.42298        2.24848
C          1.44275       -0.52236        1.91117
C          2.50061       -0.22142        1.14317
C          3.58576       -1.24882        0.91034
C          3.66364       -1.69155       -0.55608
C          4.49347       -0.73957       -1.36422
O          5.59545       -0.28721       -1.16534
O          3.81526       -0.38730       -2.51409
C          2.70984        1.09646        0.47455
O         -0.12269        2.54637        0.41495
C         -0.71223        3.66906        1.12320
H         -4.68226        0.53319       -1.74920
H         -3.44248       -0.20252       -2.85977
H         -2.94936        3.17338       -1.44847
H         -2.18724        2.21019       -2.72767
H         -1.18567        3.20580       -1.67078
H         -1.99613       -2.56885        1.75380
H         -0.11197        0.14908        3.23440
H          0.71254        1.46106        2.35801
H          1.31864       -1.51629        2.34274
H          3.42316       -2.14375        1.54648
H          4.56586       -0.83532        1.23859
H          4.11734       -2.70424       -0.62975
H          2.64159       -1.78604       -0.99009
H          4.33345        0.22901       -3.09500
H          3.70565        1.50911        0.67930
H          1.96630        1.85149        0.78262
H          2.60500        1.00345       -0.61755
H         -0.90444        3.39042        2.16364
H         -1.62551        4.00505        0.62526
H          0.08056        4.42406        1.05317
