22
astex_1n2j_09.log	Energy:    -194.7912951
O         -2.18245       -0.95182        0.84996
C         -1.74046       -0.29713       -0.05575
O         -2.58875        0.60705       -0.65389
C         -0.31008       -0.36976       -0.60850
O          0.12659       -1.72292       -0.51331
C          0.65111        0.60248        0.14688
C          0.16147        2.04089       -0.06122
C          0.71250        0.25441        1.63467
C          2.07008        0.46502       -0.47483
O          2.63554       -0.82222       -0.23543
H         -2.20478        1.12532       -1.39570
H         -0.28663       -0.19053       -1.70968
H          0.02706       -2.05201        0.42211
H         -0.82543        2.20856        0.39100
H          0.83665        2.75976        0.42444
H          0.10992        2.32361       -1.11675
H          1.23524        1.03045        2.20735
H         -0.27825        0.13347        2.08881
H          1.27978       -0.67544        1.79726
H          2.06331        0.66322       -1.56053
H          2.78898        1.14726        0.01851
H          2.05898       -1.52973       -0.63291
