34
astex_1of1_02.log	Energy:    -161.4281992
O          2.41698        2.28316        0.90709
C          3.46422        1.31778        0.80863
C          2.94781       -0.10882        0.56070
C          2.80364       -0.43938       -0.95342
O          3.75028       -1.50075       -1.16575
C          1.36627       -0.94233       -1.24162
C          0.61254       -0.81223        0.07446
N         -0.76028       -0.31374       -0.02650
C         -0.96161        1.04504       -0.42841
O         -0.04074        1.78146       -0.73492
N         -2.30541        1.47279       -0.47178
C         -3.45417        0.65239       -0.17623
O         -4.54071        1.18091       -0.25523
C         -3.13143       -0.73782        0.17906
C         -1.84535       -1.16880        0.24325
C         -4.28337       -1.64020        0.45983
C          1.57293       -0.32062        1.17576
C          1.01091       -1.73188        1.22315
H          1.78183        2.20519        0.14861
H          3.95837        1.40027        1.79738
H          4.17325        1.63950        0.02360
H          3.68327       -0.83715        0.99501
H          3.07335        0.41348       -1.60817
H          3.85350       -1.69711       -2.11511
H          1.38061       -1.99024       -1.59300
H          0.89342       -0.34352       -2.04175
H         -2.47018        2.45679       -0.73584
H         -1.58843       -2.20400        0.50487
H         -4.34593       -2.45979       -0.26979
H         -5.24384       -1.09606        0.40918
H         -4.22313       -2.08179        1.46413
H          1.27496        0.41150        1.93224
H          0.29953       -1.98302        2.00659
H          1.65838       -2.58427        1.00963
