22
astex_1n2j_05.log	Energy:    -202.5616952
O          1.83364       -0.92483       -0.66257
C          1.53515        0.03252        0.01944
O          2.40528        1.07772        0.15246
C          0.24910        0.30254        0.81985
O          0.07949       -0.77153        1.71890
C         -0.97280        0.49722       -0.12988
C         -2.22449        0.61815        0.74697
C         -0.77079        1.77826       -0.94813
C         -1.12661       -0.70557       -1.10445
O         -0.71289       -1.93545       -0.48352
H          3.27197        0.92958       -0.31742
H          0.39922        1.18837        1.48730
H         -0.33295       -1.57106        1.24124
H         -3.12942        0.76379        0.14796
H         -2.36942       -0.28801        1.35405
H         -2.15630        1.45996        1.44578
H          0.14458        1.75454       -1.55053
H         -0.70692        2.66404       -0.30302
H         -1.60939        1.95108       -1.63380
H         -2.18859       -0.88607       -1.35616
H         -0.55362       -0.56055       -2.03570
H          0.24934       -2.11175       -0.70478
