57
omegacsd_SPIRIL_07.log	Energy:     -35.1157632
C          2.08058       -1.37680       -1.16497
C          3.20018       -0.78751       -0.28333
C          4.29879       -1.87125       -0.04535
O          4.27012       -2.85079        0.66631
N          5.41027       -1.52057       -0.81961
C          5.15793       -0.31527       -1.65373
N          3.88791        0.28532       -1.11235
C          4.07766        1.57230       -0.45908
C          3.15409        2.57633       -0.79678
C          3.29097        3.84993       -0.24020
C          4.33755        4.12607        0.64580
C          5.25236        3.12227        0.98090
C          5.12720        1.84259        0.43600
C          2.64929       -0.28613        1.05937
C          1.79844       -1.37363        1.74531
N          0.69094       -1.90704        0.90300
C         -0.41969       -0.91770        0.71898
C         -1.72307       -1.69286        0.45042
C         -2.90541       -0.78654        0.32317
C         -4.15862       -1.22107        0.11047
C         -5.28047       -0.25812       -0.00964
C         -5.63865        0.54448        1.08621
C         -6.69521        1.45263        0.98523
C         -7.37336        1.53390       -0.23398
C         -7.04478        0.75198       -1.34534
C         -5.98732       -0.15115       -1.21936
F         -8.38407        2.40008       -0.34297
C         -4.52398       -2.66526       -0.02304
C          1.24031       -2.40824       -0.38952
H          1.43829       -0.54873       -1.52721
H          2.50413       -1.83715       -2.07661
H          6.26154       -2.05604       -0.88585
H          4.95521       -0.60399       -2.71473
H          6.02228        0.38308       -1.63356
H          2.34601        2.35685       -1.49424
H          2.57903        4.63255       -0.50118
H          4.43986        5.12123        1.07437
H          6.06547        3.33730        1.67368
H          5.83459        1.06185        0.70991
H          3.47140        0.02193        1.73333
H          2.03593        0.62238        0.89469
H          1.38150       -0.98776        2.69775
H          2.44996       -2.24435        2.01247
H         -0.53234       -0.32199        1.65066
H         -0.22702       -0.19220       -0.09916
H         -1.88527       -2.42763        1.27067
H         -1.61637       -2.31036       -0.46674
H         -2.69944        0.28105        0.40832
H         -5.08959        0.45440        2.02391
H         -6.97828        2.07483        1.83226
H         -7.59352        0.84135       -2.28105
H         -5.70472       -0.77613       -2.06660
H         -4.15700       -3.24882        0.83414
H         -4.08109       -3.10502       -0.92757
H         -5.60897       -2.82271       -0.07731
H          0.40439       -2.76948       -1.02384
H          1.86696       -3.30067       -0.14692
