45
omegacsd_FABSOQ10_01.log	Energy:     -98.3717308
S          0.59531       -0.09324       -0.59681
C         -0.93976        0.23432        0.15829
C         -1.06374       -0.49320        1.30570
C          0.07403       -1.33968        1.57378
C          1.05422       -1.24047        0.63114
C          2.34197       -1.98875        0.52840
O          2.21444       -3.01081       -0.47379
C          3.53839       -1.10329        0.25121
C          3.66735        0.14671        0.86580
C          4.79106        0.94628        0.63381
C          5.78676        0.46510       -0.22476
O          6.94575        1.12746       -0.55909
C          7.16231        2.44323        0.00581
C          5.68552       -0.79916       -0.84477
C          4.56099       -1.57337       -0.59455
C         -1.86197        1.24299       -0.44441
O         -1.60060        2.52532        0.15341
C         -3.32674        0.87694       -0.31057
C         -3.75840       -0.44038       -0.49546
C         -5.11513       -0.76866       -0.40817
C         -6.03240        0.25339       -0.13618
O         -7.39413        0.09697       -0.01338
C         -7.94356       -1.23096       -0.19180
C         -5.62128        1.59211        0.04296
C         -4.26908        1.89047       -0.05249
H         -1.92487       -0.46929        1.96198
H          0.10987       -1.98465        2.44205
H          2.52871       -2.60610        1.44802
H          1.98131       -2.62550       -1.34592
H          2.88713        0.51268        1.53604
H          4.87212        1.91524        1.11353
H          8.13126        2.71768       -0.43171
H          7.22757        2.38260        1.09578
H          6.37663        3.13099       -0.31987
H          6.48435       -1.14151       -1.49830
H          4.46348       -2.56224       -1.05193
H         -1.62508        1.45006       -1.52190
H         -1.67598        2.47520        1.13040
H         -3.03407       -1.22888       -0.70992
H         -5.43255       -1.79524       -0.55276
H         -7.74185       -1.59319       -1.20388
H         -9.01678       -1.05026       -0.04574
H         -7.55307       -1.90971        0.57159
H         -6.36543        2.35907        0.24468
H         -3.92451        2.92187        0.06727
