61
omegapdb_1v2k_04.log	Energy:     -58.1907550
N          9.66408        2.57553        0.64533
C          9.11598        1.71088        1.54193
C          8.07122        0.83527        1.23331
C          7.54708        0.82743       -0.08371
C          8.10992        1.73302       -1.01907
C          9.15151        2.57038       -0.61582
N          6.59366       -0.12974       -0.48653
C          5.84180       -0.85456        0.58861
C          4.73848       -1.73449       -0.01251
C          3.67471       -0.88292       -0.73448
C          4.30508        0.35134       -1.40771
C          5.78980        0.11611       -1.72038
C          2.64354       -0.42103        0.30151
O          2.86790        0.48485        1.09144
N          1.45241       -1.15979        0.42373
C          0.41597       -0.67658        1.37775
C         -0.71623        0.05768        0.62830
N         -1.30676       -0.76572       -0.46367
C         -0.26064       -1.26997       -1.39375
C          0.89209       -1.99917       -0.66393
S         -2.46257       -1.96128        0.04312
O         -2.04219       -2.50725        1.32082
O         -2.62267       -2.84822       -1.09362
C         -3.89376       -1.01785        0.27564
C         -4.58251       -0.50977       -0.79897
C         -5.76589        0.26526       -0.59644
C         -6.22095        0.49843        0.73040
C         -5.48707       -0.05223        1.82848
C         -4.35408       -0.79287        1.60427
C         -7.40430        1.27638        0.93682
C         -8.07068        1.77577       -0.15253
C         -7.63299        1.55134       -1.48969
C         -6.50021        0.80809       -1.70094
Cl        -9.49752        2.71561        0.07527
H          9.54498        1.73732        2.55096
H          7.68543        0.17758        2.00348
H          7.74471        1.77417       -2.04145
H          9.60895        3.27702       -1.31832
H          6.57243       -1.48654        1.14208
H          5.38534       -0.13587        1.31356
H          4.27571       -2.34321        0.78989
H          5.17776       -2.46126       -0.72490
H          3.18946       -1.51673       -1.51954
H          3.75784        0.60907       -2.33130
H          4.20853        1.23742       -0.73768
H          5.91632       -0.77997       -2.37086
H          6.19713        0.98044       -2.29409
H          0.88803       -0.00122        2.13013
H          0.01312       -1.56137        1.93178
H         -0.32420        0.99726        0.17132
H         -1.51070        0.36989        1.33916
H          0.13538       -0.39722       -1.96148
H         -0.72959       -1.95064       -2.14544
H          0.52781       -2.95200       -0.20888
H          1.68782       -2.28273       -1.39027
H         -4.24426       -0.69022       -1.82582
H         -5.84809        0.12388        2.84198
H         -3.79449       -1.22967        2.44118
H         -7.75595        1.45754        1.95299
H         -8.20476        1.97196       -2.31786
H         -6.14090        0.61750       -2.71385
