66
omegapdb_1z1r_06.log	Energy:    -260.7398723
C          0.46784        0.18119       -0.80718
C          0.15074       -0.69981       -2.04159
C         -1.02590       -1.59603       -1.78788
C         -2.26609       -1.30134       -2.38092
C         -3.42299       -1.95391       -1.95984
C         -3.31412       -2.91882       -0.94678
C         -2.06988       -3.33320       -0.44956
C         -0.92483       -2.66090       -0.87752
O         -4.51766       -3.43029       -0.47683
C         -4.69489       -3.38611        0.96762
C         -4.73056       -1.94484        1.48490
C         -3.35420       -1.44214        1.92864
C         -3.40783       -0.03230        2.47720
O         -3.61657        0.21977        3.64802
N         -3.06820        1.04882        1.62756
C         -3.21665        1.03842        0.16335
C         -1.85493        1.17404       -0.57877
O         -1.80909        1.77642       -1.65382
N         -0.75736        0.54167       -0.03655
C         -4.17250        2.14650       -0.31131
C         -3.66862        3.53132        0.06562
O         -3.80492        3.99766        1.18613
N         -3.06947        4.26452       -0.95166
C          1.26155        1.45879       -1.20118
O          0.80917        2.01379       -2.44028
C          2.75758        1.16957       -1.48620
N          3.66167        1.51222       -0.37121
S          3.89549        0.38504        0.90581
O          2.90311       -0.67028        0.72893
O          3.90300        1.17878        2.11542
C          5.46531       -0.26261        0.61186
C          6.59112        0.37561        1.14340
C          7.86600       -0.14569        0.90382
C          8.01156       -1.30594        0.13558
C          6.88469       -1.94909       -0.38955
C          5.61068       -1.42737       -0.14950
H          1.10846       -0.42672       -0.09061
H         -0.02939       -0.04661       -2.92694
H          1.05118       -1.29170       -2.30134
H         -2.33086       -0.52297       -3.14432
H         -4.39683       -1.72482       -2.38672
H         -2.00409       -4.15056        0.26338
H          0.05027       -2.94509       -0.47984
H         -3.92292       -4.00500        1.45218
H         -5.68193       -3.88217        1.05616
H         -5.15086       -1.28896        0.69404
H         -5.44043       -1.87714        2.33775
H         -2.96228       -2.09621        2.74233
H         -2.61468       -1.52837        1.10713
H         -3.12874        1.99083        2.06383
H         -3.63462        0.04584       -0.18719
H         -0.81373        0.13714        0.90025
H         -5.17489        2.00685        0.15094
H         -4.32959        2.05387       -1.40819
H         -2.71630        3.80413       -1.78487
H         -2.64912        5.15666       -0.73106
H          1.13849        2.23977       -0.41466
H         -0.19187        2.11729       -2.42807
H          3.05307        1.78307       -2.37866
H          2.90869        0.11080       -1.78842
H          3.61792        2.51019       -0.12354
H          6.47752        1.27681        1.75628
H          8.74359        0.35028        1.31733
H          9.00662       -1.71257       -0.05249
H          6.99998       -2.85598       -0.98191
H          4.72836       -1.93867       -0.54837
