45
omegacsd_FABSOQ10_05.log	Energy:     -99.3503744
S         -0.57770       -0.06689       -0.24383
C         -1.10467        1.52618        0.24016
C         -0.16443        2.12642        1.02212
C          1.00724        1.30895        1.23952
C          0.93427        0.10421        0.61215
C          1.86426       -1.05947        0.56328
O          1.34365       -1.98785       -0.40857
C          3.29667       -0.70259        0.24492
C          4.33171       -1.45642        0.81102
C          5.66951       -1.17431        0.51920
C          5.95147       -0.11996       -0.35835
O          7.20622        0.28507       -0.74725
C          8.34747       -0.43244       -0.21699
C          4.92500        0.65218       -0.94528
C          3.60569        0.35086       -0.63682
C         -2.41014        2.06942       -0.24076
O         -2.80625        3.18843        0.57222
C         -3.51215        1.03521       -0.27637
C         -3.74544        0.18955        0.81471
C         -4.78372       -0.74592        0.78949
C         -5.58704       -0.81870       -0.35543
O         -6.64272       -1.68110       -0.54000
C         -6.94971       -2.61576        0.52296
C         -5.37538        0.02611       -1.46631
C         -4.33842        0.94829       -1.41274
H         -0.26016        3.12035        1.44184
H          1.84117        1.65209        1.83652
H          1.78387       -1.65373        1.51245
H          1.61729       -1.73647       -1.31730
H          4.09892       -2.28070        1.48774
H          6.45814       -1.76823        0.96752
H          8.31852       -1.47919       -0.53262
H          9.18417        0.09813       -0.69087
H          8.38675       -0.33294        0.87138
H          5.18530        1.46313       -1.62205
H          2.79983        0.94170       -1.07909
H         -2.26964        2.56724       -1.23782
H         -3.09299        2.89101        1.46008
H         -3.10778        0.25062        1.69884
H         -4.94631       -1.39664        1.64137
H         -7.23877       -2.07766        1.43004
H         -6.10287       -3.28611        0.69612
H         -7.80344       -3.16197        0.10046
H         -6.02307       -0.05955       -2.33568
H         -4.16595        1.61189       -2.26178
