39
omegacsd_FIBREN_06.log	Energy:     -53.8922219
N          3.01656       -0.42062        1.85462
C          1.74652       -0.13147        2.31904
N          0.64187        0.12232        1.54999
C          0.74886        0.11300        0.16705
C          2.01441       -0.18916       -0.40378
C          3.09561       -0.43814        0.50603
O          4.22892       -0.70287       -0.23006
C          3.77442       -0.60202       -1.61370
N          2.49752       -0.30718       -1.72530
C          4.83981       -0.85036       -2.58734
N         -0.33773        0.42481       -0.61331
C         -1.69612        0.63968       -0.04710
C         -2.37706        1.80689       -0.79257
C         -1.72427        3.12374       -0.49010
O         -1.20610        3.91168       -1.24205
O         -1.80535        3.39975        0.85533
C         -2.50047       -0.64313       -0.16419
C         -3.02826       -1.07311       -1.38933
C         -3.75285       -2.26647       -1.45782
C         -3.94862       -3.03694       -0.30711
C         -3.41300       -2.61475        0.91378
C         -2.68754       -1.42245        0.98662
C          1.56651       -0.10644        3.79824
H          4.47080       -0.74183       -3.62275
H          5.67998       -0.14559       -2.45561
H          5.25427       -1.86856       -2.48334
H         -0.25048        0.31649       -1.62596
H         -1.59344        0.93285        1.04421
H         -2.38031        1.65019       -1.89338
H         -3.45013        1.84613       -0.49059
H         -1.35726        4.25424        1.10055
H         -2.87570       -0.48620       -2.29287
H         -4.16319       -2.59773       -2.41070
H         -4.51389       -3.96598       -0.36268
H         -3.55740       -3.21699        1.80987
H         -2.25651       -1.10366        1.93775
H          2.41031        0.40121        4.29540
H          1.53298       -1.13231        4.20166
H          0.63491        0.40073        4.09440
