36
omegapdb_1qxw_03.log	Energy:    -109.0645444
C         -4.83446       -0.76556        0.01360
C         -3.96561        0.15744        0.84539
C         -3.36204       -1.09703        0.20674
N         -2.49108       -1.03136       -0.96782
C         -1.04855       -0.93122       -0.63956
C         -0.56184        0.45388       -0.14333
C          0.92329        0.79108       -0.47828
N          1.13225        2.21058       -0.07523
C          1.87536       -0.20985        0.20334
C          3.33465       -0.00052       -0.21428
C          4.25335       -1.05160        0.42618
C          5.71137       -0.84557        0.02338
O         -0.66550        0.55298        1.27710
O         -1.45934        1.40880       -0.68677
H         -5.58508       -1.38372        0.50019
H         -5.19484       -0.43070       -0.95721
H         -4.11409        0.20650        1.91904
H         -3.70073        1.13658        0.44425
H         -3.09474       -1.93920        0.86220
H         -2.75632       -0.24662       -1.58232
H         -0.77963       -1.69431        0.12562
H         -0.49789       -1.20747       -1.56917
H          1.04425        0.73641       -1.59293
H          1.05172        2.30192        0.93878
H          2.06416        2.52227       -0.33371
H          1.76886       -0.12745        1.30544
H          1.56765       -1.24613       -0.03701
H          3.67748        1.01165        0.07353
H          3.42565       -0.04834       -1.31708
H          3.92527       -2.06846        0.13340
H          4.16061       -1.01108        1.52951
H          6.08442        0.13594        0.33724
H          6.35857       -1.60227        0.48194
H          5.84600       -0.91588       -1.06210
H         -1.60718        0.58711        1.55630
H         -1.08665        2.32809       -0.63625
