46
omegacsd_CDBMPI10_02.log	Energy:     -39.5140195
O         -3.05389        2.11065       -0.86321
C         -2.52729        1.16155       -0.30322
N         -1.33162        1.34483        0.40191
C         -0.58449        0.24986        1.08527
C          0.91282        0.64444        1.24728
N          1.42515        1.28898        0.02090
C          0.70752        2.52911       -0.42341
C         -0.64613        2.65882        0.32161
C          1.57758        3.76120       -0.17169
C          2.37576        0.71251       -0.82836
O          2.67334        1.26693       -1.87444
C          3.01392       -0.56691       -0.37122
C          4.14707       -0.52390        0.44999
C          4.76563       -1.71752        0.83347
C          4.25507       -2.94424        0.39571
C          3.12656       -2.98088       -0.43032
C          2.50304       -1.79133       -0.81841
C         -1.18995       -0.03940        2.46201
C         -3.12285       -0.21532       -0.30416
C         -2.68028       -1.16286       -1.23567
C         -3.27554       -2.42713       -1.26790
C         -4.30845       -2.73935       -0.37719
C         -4.75404       -1.78528        0.54350
C         -4.16510       -0.51765        0.58017
H         -0.64705       -0.67255        0.44779
H          1.50490       -0.26122        1.50337
H          1.04015        1.35065        2.10022
H          0.51982        2.42875       -1.52988
H         -0.50715        3.05984        1.34853
H         -1.29975        3.38767       -0.22000
H          1.06729        4.68040       -0.47997
H          2.50780        3.69583       -0.75838
H          1.86445        3.86672        0.87912
H          4.54866        0.43454        0.77875
H          5.64999       -1.69064        1.46860
H          4.74090       -3.87264        0.69371
H          2.73656       -3.93646       -0.77790
H          1.63330       -1.81509       -1.47433
H         -2.21226       -0.43023        2.37257
H         -0.60601       -0.78674        3.01005
H         -1.24974        0.86240        3.08324
H         -1.88696       -0.91099       -1.93960
H         -2.93913       -3.16692       -1.99294
H         -4.77144       -3.72499       -0.40595
H         -5.56659       -2.02577        1.22765
H         -4.52314        0.23581        1.28210
