40
omegapdb_2byh_09.log	Energy:     -92.5339141
O         -7.41098       -0.45120        0.96273
C         -6.50863       -1.04978        0.41094
C         -6.72232       -2.43516       -0.13123
C         -5.16119       -0.43298        0.25231
C         -4.08929       -1.08285       -0.37648
C         -2.84850       -0.46125       -0.49888
C         -2.66918        0.83577        0.01474
C         -3.74019        1.50313        0.65196
C         -4.97029        0.86458        0.76376
N         -1.42917        1.53551       -0.07960
C         -0.23438        1.04609       -0.66137
O         -0.14279       -0.07627       -1.12238
C          0.86603        2.02052       -0.65090
C          0.81395        3.40614       -1.02995
N          2.05258        3.95132       -0.96509
N          2.89487        2.95556       -0.55557
C          2.21269        1.74795       -0.35135
C          2.87769        0.53293        0.07595
C          2.70350       -0.64318       -0.68342
C          3.38231       -1.80421       -0.33811
Cl         3.19067       -3.22802       -1.26690
C          4.23809       -1.82764        0.79157
O          4.93806       -2.92170        1.17733
C          4.39641       -0.68878        1.58846
C          3.69834        0.46977        1.22893
O          3.89173        1.52872        2.07022
H         -6.05884       -3.16839        0.34421
H         -7.75629       -2.76744        0.05284
H         -6.55725       -2.48131       -1.21497
H         -4.21359       -2.08950       -0.78004
H         -2.01907       -0.98217       -0.99053
H         -3.61522        2.50501        1.05473
H         -5.81141        1.36790        1.25497
H         -1.41272        2.47143        0.33633
H         -0.05476        3.96550       -1.34455
H          3.89247        3.12440       -0.48948
H          2.01522       -0.63503       -1.54382
H          4.78423       -3.72061        0.59557
H          5.03423       -0.70681        2.47303
H          3.22523        2.25380        1.94606
