45
omegacsd_FABSOQ10_06.log	Energy:     -98.2891640
S          0.00003       -2.30993        0.82765
C         -1.26136       -1.36753        0.09031
C         -0.72041       -0.39570       -0.70209
C          0.72050       -0.39575       -0.70214
C          1.26144       -1.36763        0.09022
C          2.68964       -1.73085        0.33263
O          3.06316       -2.77802       -0.58041
C          3.64051       -0.55569        0.22091
C          4.85900       -0.70498       -0.44901
C          5.76577        0.35612       -0.53545
C          5.42986        1.56946        0.07598
O          6.20520        2.70673        0.08244
C          7.48937        2.65563       -0.58499
C          4.21244        1.73927        0.77097
C          3.32932        0.67012        0.83879
C         -2.68955       -1.73070        0.33284
O         -3.06306       -2.77804       -0.58002
C         -3.64046       -0.55559        0.22101
C         -3.32921        0.67039        0.83851
C         -4.21237        1.73949        0.77057
C         -5.42991        1.56947        0.07584
O         -6.20528        2.70672        0.08213
C         -7.48958        2.65539       -0.58501
C         -5.76590        0.35595       -0.53521
C         -4.85908       -0.70509       -0.44865
H         -1.29339        0.32242       -1.27593
H          1.29350        0.32234       -1.27600
H          2.83849       -2.23717        1.32355
H          2.84607       -2.52831       -1.50419
H          5.10779       -1.66763       -0.90485
H          6.70438        0.22322       -1.06154
H          7.35545        2.46011       -1.65257
H          7.86987        3.67164       -0.41571
H          8.13520        1.91153       -0.11014
H          3.99235        2.69575        1.23927
H          2.38570        0.78325        1.37599
H         -2.83836       -2.23689        1.32385
H         -2.84643       -2.52826       -1.50389
H         -2.38550        0.78369        1.37553
H         -3.99223        2.69610        1.23859
H         -7.35588        2.45962       -1.65257
H         -7.87011        3.67142       -0.41590
H         -8.13528        1.91137       -0.10984
H         -6.70459        0.22288       -1.06109
H         -5.10793       -1.66787       -0.90418
