39
omegacsd_FIBREN_03.log	Energy:     -55.6085339
N         -3.65894        1.46918       -0.50451
C         -2.49968        2.22133       -0.48344
N         -1.22636        1.74231       -0.32373
C         -1.01544        0.37593       -0.18574
C         -2.15151       -0.47742       -0.18452
C         -3.43358        0.14510       -0.35202
O         -4.39814       -0.83624       -0.32836
C         -3.63511       -2.06792       -0.14009
N         -2.33794       -1.87086       -0.05644
C         -4.48260       -3.26093       -0.08535
N          0.26276       -0.11244       -0.08977
C          1.44752        0.77983       -0.04673
C          1.73193        1.26271        1.39497
C          1.84659        0.17496        2.41227
O          1.55957       -0.99948        2.36150
O          2.36292        0.69425        3.57830
C          2.64633        0.08048       -0.66316
C          3.05372       -1.19914       -0.26420
C          4.16643       -1.79869       -0.86172
C          4.87970       -1.12482       -1.85720
C          4.47512        0.15284       -2.25807
C          3.36112        0.75352       -1.66671
C         -2.65872        3.69445       -0.64600
H         -5.55327       -3.00431       -0.17384
H         -4.24021       -3.96436       -0.90180
H         -4.34772       -3.80676        0.86553
H          0.39531       -1.09789        0.17148
H          1.20747        1.70787       -0.65290
H          2.65495        1.88753        1.40393
H          0.91618        1.96124        1.70970
H          2.44297        0.01365        4.30049
H          2.50932       -1.73732        0.51763
H          4.47588       -2.79519       -0.54817
H          5.74622       -1.59334       -2.32090
H          5.02661        0.67971       -3.03549
H          3.04889        1.74484       -1.99340
H         -1.70886        4.23436       -0.51250
H         -3.04710        3.93500       -1.65017
H         -3.38889        4.09618        0.07644
