39
omegacsd_FIBREN_11.log	Energy:     -53.0422987
N         -2.70906       -0.31757        1.96047
C         -1.39717        0.01069        2.23310
N         -0.40217        0.21631        1.31005
C         -0.68032        0.11449       -0.04285
C         -2.01385       -0.22253       -0.41866
C         -2.96282       -0.42052        0.63562
O         -4.17922       -0.73659        0.07255
C         -3.91162       -0.71662       -1.36125
N         -2.66393       -0.42121       -1.65651
C         -5.09114       -1.02968       -2.17089
N          0.26562        0.36270       -1.00520
C          1.71646        0.63007       -0.80501
C          1.98603        1.73517        0.23048
C          1.56934        3.10045       -0.21371
O          1.19256        4.03770        0.44604
O          1.69721        3.24908       -1.58257
C          2.45964       -0.65101       -0.46280
C          3.20935       -1.27858       -1.47013
C          3.90578       -2.45788       -1.19476
C          3.85674       -3.01894        0.08584
C          3.10881       -2.39665        1.08944
C          2.41155       -1.21540        0.81783
C         -1.02427        0.16291        3.66803
H         -5.49648       -2.02755       -1.92673
H         -4.85307       -1.01855       -3.24927
H         -5.90393       -0.30173       -1.99944
H         -0.02872        0.23342       -1.97991
H          2.08093        1.01314       -1.80871
H          3.07214        1.75139        0.48027
H          1.47633        1.50440        1.20460
H          1.42446        4.15331       -1.89320
H          3.25327       -0.85148       -2.47096
H          4.48618       -2.94125       -1.97905
H          4.39857       -3.93892        0.29913
H          3.06518       -2.83310        2.08628
H          1.82145       -0.74026        1.60557
H         -1.82540       -0.19349        4.33838
H         -0.10452       -0.39109        3.90999
H         -0.83902        1.22285        3.91158
