66
omegapdb_1z1r_02.log	Energy:    -261.1661290
C         -0.17030       -1.63743       -0.58608
C         -1.09999       -2.82326       -0.91960
C         -2.49436       -2.55994       -0.42825
C         -3.51215       -2.23939       -1.33606
C         -4.77637       -1.85381       -0.88118
C         -4.99997       -1.79653        0.49909
C         -4.01594       -2.18237        1.42799
C         -2.76674       -2.56563        0.95354
O         -6.20881       -1.41888        1.06175
C         -6.86473       -0.25332        0.49305
C         -6.05232        1.01153        0.76743
C         -5.17398        1.45983       -0.40740
C         -3.70722        1.53739       -0.01599
O         -3.26946        1.39576        1.10517
N         -2.83944        1.75787       -1.11543
C         -1.39515        2.03030       -0.93984
C         -0.68131        0.79274       -0.33699
O          0.00614        0.83586        0.67240
N         -0.72614       -0.36349       -1.12125
C         -1.12152        3.26396       -0.06784
C          0.26384        3.81816       -0.38480
O          0.45233        4.56926       -1.33265
N          1.28249        3.45043        0.47253
C          1.24237       -1.86891       -1.20576
O          1.71734       -3.13958       -0.75777
C          2.26378       -0.75580       -0.88012
N          2.46355       -0.62917        0.58769
S          3.70155        0.46882        1.09214
O          3.44731        1.75734        0.45680
O          3.71782        0.39552        2.53404
C          5.14220       -0.20582        0.42063
C          5.66775       -1.39277        0.94014
C          6.84159       -1.92975        0.40174
C          7.48965       -1.27347       -0.64995
C          6.96824       -0.08026       -1.16416
C          5.79510        0.45464       -0.62628
H         -0.07131       -1.55439        0.53338
H         -0.67583       -3.74319       -0.45591
H         -1.08831       -3.04043       -2.00628
H         -3.32513       -2.28709       -2.40753
H         -5.56897       -1.61721       -1.58328
H         -4.23993       -2.15161        2.49315
H         -1.98621       -2.84897        1.66017
H         -7.07353       -0.42707       -0.57400
H         -7.81418       -0.26934        1.06507
H         -6.72982        1.83552        1.06381
H         -5.41459        0.83091        1.67146
H         -5.29570        0.76971       -1.26900
H         -5.51075        2.45341       -0.76849
H         -3.22128        2.07073       -2.00539
H         -0.95971        2.21101       -1.96730
H         -1.44469       -0.46044       -1.83837
H         -1.24384        3.00858        1.01066
H         -1.86745        4.06099       -0.26565
H          1.17096        2.66827        1.11183
H          2.25279        3.63066        0.21971
H          1.17185       -2.00780       -2.31046
H          2.08378       -3.07028        0.15599
H          3.23505       -1.03640       -1.35338
H          1.93269        0.20014       -1.35025
H          1.54415       -0.47959        1.06484
H          5.16889       -1.90199        1.77098
H          7.25162       -2.85514        0.80447
H          8.40641       -1.69114       -1.06917
H          7.47849        0.43319       -1.97819
H          5.39044        1.39548       -1.01972
