36
omegapdb_1qxw_06.log	Energy:    -103.7307039
C          3.64264       -2.16890       -0.14914
C          4.79388       -1.22834        0.14562
C          3.58535       -0.72353       -0.63316
N          2.67682        0.18466        0.08808
C          1.34640        0.28128       -0.58323
C          0.40411        1.05121        0.35604
C         -1.08726        1.14448       -0.08934
N         -1.08389        1.67226       -1.48593
C         -1.76894       -0.23465       -0.03976
C         -3.29762       -0.12144       -0.00995
C         -3.95557       -1.50691        0.06809
C         -5.47884       -1.40699        0.09952
O          0.93117        2.38579        0.45635
O          0.38098        0.55366        1.68508
H          2.99287       -2.47928        0.66801
H          3.76719       -2.96976       -0.87218
H          5.74328       -1.35421       -0.36768
H          4.94924       -0.88900        1.16893
H          3.69770       -0.53365       -1.71052
H          3.09607        1.12541        0.14575
H          0.94152       -0.73938       -0.76065
H          1.36907        0.79049       -1.57401
H         -1.59798        1.83309        0.63537
H         -0.69864        2.61566       -1.50302
H         -2.02920        1.71606       -1.85314
H         -1.41441       -0.77276        0.86605
H         -1.44900       -0.84530       -0.90746
H         -3.66048        0.41109       -0.90949
H         -3.61611        0.49067        0.85633
H         -3.59751       -2.04276        0.96934
H         -3.63890       -2.12340       -0.79607
H         -5.87102       -0.91670       -0.79862
H         -5.82854       -0.83370        0.96569
H         -5.93885       -2.40004        0.15753
H          0.78104        2.74659        1.35472
H          1.24998        0.13971        1.93059
