36
omegapdb_1qxw_34.log	Energy:    -105.0363251
C          3.36459       -2.24565       -0.11656
C          1.86406       -2.06160       -0.01024
C          2.80817       -0.99506        0.55083
N          3.02373        0.28646       -0.12248
C          2.08865        1.35610        0.29637
C          0.65465        1.25345       -0.28632
C         -0.36812        0.47431        0.60143
N         -0.77003        1.42884        1.67912
C         -1.57733        0.00517       -0.22465
C         -2.43281       -1.02144        0.52530
C         -3.65580       -1.46189       -0.29333
C         -4.74520       -0.39416       -0.35623
O          0.72788        0.60313       -1.55999
O          0.23608        2.57339       -0.61933
H          3.86173       -2.99533        0.49370
H          3.84586       -2.17455       -1.08993
H          1.29281       -2.69361        0.66066
H          1.28982       -1.83739       -0.91024
H          2.90141       -0.89825        1.64187
H          2.97033        0.17616       -1.14686
H          2.04873        1.43011        1.40204
H          2.52961        2.32410       -0.05232
H          0.16214       -0.42448        1.01139
H         -1.76220        1.35452        1.88765
H         -0.26615        1.24163        2.54009
H         -2.19193        0.87310       -0.53394
H         -1.20554       -0.43820       -1.17626
H         -2.76672       -0.61403        1.49813
H         -1.81824       -1.91190        0.76575
H         -4.07322       -2.38842        0.14952
H         -3.34217       -1.73744       -1.31996
H         -5.60250       -0.73824       -0.94623
H         -5.11662       -0.13479        0.64126
H         -4.37949        0.52931       -0.82025
H          0.58537        1.26848       -2.27663
H         -0.45568        2.91475       -0.00098
