24
omegapdb_1gs5_11.log	Energy:    -238.8282865
C         -0.69762        0.60371        0.75560
C         -1.65289        1.61310        0.09495
O         -2.82951        1.50896       -0.14555
O         -0.99210        2.78871       -0.15959
C          0.65049        0.57533        0.01474
C          1.68463       -0.26168        0.76583
C          3.02658       -0.28297        0.09609
O          3.92188       -1.08368        0.23174
O          3.20024        0.79177       -0.74582
N         -1.35908       -0.71318        0.83230
C         -1.54276       -1.54867       -0.29801
O         -0.99177       -1.32213       -1.35571
C         -2.41641       -2.74101       -0.03717
H         -0.52912        0.96654        1.81136
H         -1.57404        3.47235       -0.59274
H          0.51613        0.17592       -1.02040
H          1.02089        1.61788       -0.12123
H          1.82083        0.10858        1.80635
H          1.32763       -1.31439        0.86874
H          4.08709        0.78084       -1.19838
H         -1.97673       -0.83032        1.63484
H         -3.47431       -2.45664        0.06182
H         -2.12918       -3.30372        0.85998
H         -2.35765       -3.44070       -0.88919
