50
omegapdb_1xom_05.log	Energy:    -144.0781619
O          6.27056       -0.51884        0.24969
C          5.46128       -1.54660       -0.17542
O          5.94961       -2.61911       -0.44198
C          4.00731       -1.12396       -0.23547
C          3.50713       -0.75804        1.17353
C          2.03977       -0.32401        1.13051
C          1.80306        0.84981        0.14061
C          2.37429        0.50744       -1.26285
C          3.83666        0.06047       -1.20318
C          2.52708        2.02624        0.66425
N          3.11315        2.93195        1.07608
C          0.31078        1.14385        0.00677
C         -0.20604        2.43579        0.12539
C         -1.57743        2.68783       -0.02485
C         -2.44888        1.63302       -0.29851
O         -3.81069        1.72532       -0.44476
C         -4.39389        3.05298       -0.43475
C         -1.92882        0.31278       -0.43854
C         -0.56686        0.07935       -0.28164
O         -2.76289       -0.71085       -0.84562
C         -3.22413       -1.61502        0.21739
C         -4.37346       -0.96889        1.00393
C         -5.49003       -2.02165        1.06030
C         -5.26192       -2.96847       -0.13471
C         -3.79411       -2.80780       -0.56664
H          7.22969       -0.77982        0.29573
H          3.42404       -2.00248       -0.61930
H          4.14020        0.05277        1.59502
H          3.62326       -1.62038        1.85853
H          1.40419       -1.18424        0.84002
H          1.70140       -0.02939        2.14374
H          2.27455        1.38718       -1.92960
H          1.75265       -0.28570       -1.72430
H          4.18482       -0.21884       -2.21673
H          4.48678        0.90230       -0.87958
H          0.44654        3.28511        0.33769
H         -1.94249        3.70629        0.07749
H         -4.25263        3.52343        0.54198
H         -5.45336        2.82728       -0.61600
H         -3.98093        3.65866       -1.24643
H         -0.19186       -0.93742       -0.40402
H         -2.35540       -1.87597        0.84813
H         -4.71344       -0.05698        0.46513
H         -4.06236       -0.63840        2.00534
H         -6.48666       -1.55309        1.01642
H         -5.44960       -2.58078        2.01139
H         -5.93690       -2.70435       -0.96825
H         -5.49019       -4.01258        0.13302
H         -3.21060       -3.72244       -0.37839
H         -3.71729       -2.60674       -1.65491
