61
omegapdb_1v2k_16.log	Energy:     -56.3133995
N         -7.36277        3.63831        1.35024
C         -6.01344        3.80714        1.26314
C         -5.17384        2.93844        0.56648
C         -5.73326        1.81815       -0.10181
C         -7.13722        1.63609       -0.01098
C         -7.89529        2.56186        0.71147
N         -4.94547        0.98780       -0.91826
C         -5.49904       -0.35545       -1.28412
C         -4.41073       -1.31239       -1.78197
C         -3.30274       -1.52145       -0.73079
C         -2.92511       -0.20143       -0.02895
C         -3.45981        1.01575       -0.79292
C         -2.06534       -2.08241       -1.43489
O         -1.78220       -1.81906       -2.59441
N         -1.27221       -3.02960       -0.74940
C          0.01183       -3.42972       -1.38052
C          1.21128       -2.68456       -0.75375
N          1.13010       -2.58818        0.73465
C          0.08974       -3.47573        1.31313
C         -1.31883       -3.21892        0.72620
S          1.12773       -0.98583        1.40052
O          0.92872       -1.16063        2.82457
O          0.17665       -0.16458        0.66372
C          2.72236       -0.41989        1.05265
C          2.91562        0.59154        0.14115
C          4.23128        1.06690       -0.14103
C          5.33718        0.48341        0.53733
C          5.10366       -0.56090        1.48598
C          3.82692       -0.99890        1.73798
C          6.65832        0.95691        0.25541
C          6.82313        1.96302       -0.66116
C          5.72841        2.56216       -1.34963
C          4.45797        2.11796       -1.08941
Cl         8.40588        2.54617       -1.01478
H         -5.60951        4.68238        1.78550
H         -4.10285        3.12432        0.53259
H         -7.63640        0.81056       -0.50287
H         -8.98302        2.45045        0.79477
H         -6.03176       -0.81193       -0.41878
H         -6.24984       -0.19217       -2.09251
H         -4.86504       -2.28340       -2.05478
H         -3.96073       -0.92294       -2.72522
H         -3.67962       -2.24481        0.03112
H         -1.81707       -0.09909        0.08405
H         -3.32096       -0.20050        1.00439
H         -3.04351        1.03656       -1.82852
H         -3.12390        1.95701       -0.30089
H          0.12628       -4.53011       -1.26957
H         -0.03578       -3.21707       -2.47788
H          2.15248       -3.23325       -0.99205
H          1.29632       -1.67697       -1.21922
H          0.39887       -4.53114        1.13168
H          0.07079       -3.34915        2.42356
H         -1.77390       -2.33319        1.22409
H         -1.97845       -4.09010        0.94345
H          2.06401        1.05144       -0.37934
H          5.95623       -0.99740        2.00665
H          3.64519       -1.79200        2.47071
H          7.50850        0.51233        0.77363
H          5.92015        3.36091       -2.06752
H          3.59870        2.55805       -1.59951
