45
omegacsd_FABSOQ10_00.log	Energy:     -98.3698539
S         -0.07150        0.70003        0.02615
C         -1.13533        1.97577       -0.51011
C         -0.68551        3.18312       -0.07018
C          0.51829        3.09186        0.72453
C          0.97581        1.81703        0.86611
C          2.14924        1.31229        1.63722
O          1.68820        0.59091        2.79185
C          3.09511        0.46430        0.81280
C          3.72880       -0.63507        1.40194
C          4.63330       -1.41698        0.67715
C          4.89837       -1.06611       -0.65180
O          5.75862       -1.72664       -1.49952
C          6.45685       -2.88731       -0.98759
C          4.28209        0.04684       -1.26379
C          3.38468        0.80371       -0.52203
C         -2.31307        1.66033       -1.37413
O         -3.18097        2.80358       -1.45357
C         -3.08333        0.44775       -0.90401
C         -3.44606        0.30039        0.44015
C         -4.18538       -0.80603        0.86749
C         -4.55532       -1.76702       -0.08204
O         -5.27712       -2.90917        0.17336
C         -5.69933       -3.15592        1.53684
C         -4.20369       -1.63969       -1.44341
C         -3.47188       -0.52854       -1.84083
H         -1.16330        4.13128       -0.28687
H          0.98133        3.97135        1.15234
H          2.71396        2.15609        2.11772
H          1.10558       -0.15576        2.53527
H          3.51567       -0.88223        2.44577
H          5.11162       -2.26772        1.14876
H          7.10443       -2.60388       -0.15308
H          5.74311       -3.66653       -0.70570
H          7.05004       -3.19399       -1.85918
H          4.51824        0.28855       -2.29741
H          2.90169        1.66807       -0.98222
H         -1.98479        1.56315       -2.44410
H         -3.67781        2.92540       -0.61794
H         -3.14550        1.05283        1.17212
H         -4.45549       -0.90533        1.91294
H         -6.37156       -2.36269        1.87590
H         -4.82932       -3.26373        2.19073
H         -6.23548       -4.10894        1.43528
H         -4.51184       -2.40686       -2.15026
H         -3.19826       -0.41327       -2.89115
