61
omegapdb_1v2k_05.log	Energy:     -54.6151776
N         10.09958        0.42680        0.37281
C          9.12601        1.37492        0.30425
C          7.80337        1.10115       -0.05595
C          7.44082       -0.23019       -0.37958
C          8.45049       -1.22302       -0.30105
C          9.74416       -0.85197        0.06994
N          6.16100       -0.53911       -0.88494
C          5.68197       -1.95300       -0.84249
C          4.49043       -2.13413        0.10761
C          3.28079       -1.29415       -0.34621
C          3.72552       -0.07178       -1.17395
C          5.07406        0.47239       -0.68380
C          2.52390       -0.79396        0.88873
O          3.09208       -0.34291        1.87159
N          1.12356       -0.94737        0.91711
C          0.29509       -1.15262       -0.29585
C         -0.33296        0.17439       -0.77972
N         -1.10911        0.78664        0.33567
C         -0.26787        1.03469        1.54331
C          0.36365       -0.29036        2.01795
S         -2.17076        2.07988       -0.12055
O         -1.70399        2.59284       -1.39414
O         -2.27070        2.94673        1.03551
C         -3.67670        1.26138       -0.36526
C         -4.44523        0.87282        0.70482
C         -5.68662        0.19681        0.49422
C         -6.11493       -0.06321       -0.83644
C         -5.29753        0.36400       -1.93037
C         -4.11021        1.01155       -1.69809
C         -7.35579       -0.74333       -1.05095
C         -8.10163       -1.12485        0.03451
C         -7.69229       -0.87048        1.37522
C         -6.50509       -0.22016        1.59421
Cl        -9.59834       -1.94641       -0.20312
H          9.43797        2.39580        0.55621
H          7.08357        1.91079       -0.08501
H          8.22875       -2.26104       -0.53274
H         10.54605       -1.59695        0.13486
H          6.50654       -2.64335       -0.54943
H          5.39819       -2.22755       -1.88465
H          4.79218       -1.83504        1.13882
H          4.21349       -3.20141        0.17447
H          2.61787       -1.93346       -0.98181
H          3.80097       -0.35665       -2.24303
H          2.96826        0.73472       -1.13067
H          5.34913        1.38235       -1.26384
H          4.98748        0.76105        0.39262
H          0.89690       -1.61513       -1.10964
H         -0.51282       -1.87757       -0.03517
H         -1.01948       -0.03063       -1.63159
H          0.45706        0.85932       -1.16488
H          0.53145        1.78661        1.35156
H         -0.91265        1.45618        2.35085
H          1.04786       -0.10040        2.88019
H         -0.42242       -0.99808        2.36209
H         -4.12875        1.07789        1.73402
H         -5.63929        0.17104       -2.94727
H         -3.48732        1.35656       -2.53249
H         -7.68742       -0.94440       -2.06998
H         -8.32841       -1.19452        2.19991
H         -6.16598       -0.00863        2.60996
