39
omegacsd_FIBREN_09.log	Energy:     -53.0424526
N         -2.70898       -0.31788        1.96044
C         -1.39708        0.01031        2.23311
N         -0.40210        0.21613        1.31008
C         -0.68029        0.11454       -0.04283
C         -2.01381       -0.22241       -0.41868
C         -2.96275       -0.42060        0.63559
O         -4.17915       -0.73669        0.07247
C         -3.91158       -0.71644       -1.36130
N         -2.66389       -0.42097       -1.65655
C         -5.09117       -1.02898       -2.17103
N          0.26561        0.36308       -1.00517
C          1.71648        0.63016       -0.80497
C          1.98626        1.73513        0.23063
C          1.56944        3.10046       -0.21331
O          1.19237        4.03751        0.44656
O          1.69778        3.24947       -1.58208
C          2.45950       -0.65102       -0.46287
C          3.20910       -1.27855       -1.47030
C          3.90542       -2.45795       -1.19509
C          3.85637       -3.01916        0.08543
C          3.10854       -2.39689        1.08913
C          2.41141       -1.21554        0.81769
C         -1.02415        0.16232        3.66804
H         -5.51253       -2.01556       -1.90885
H         -5.89405       -0.28581       -2.01911
H         -4.84726       -1.04311       -3.24808
H         -0.02882        0.23410       -1.97990
H          2.08102        1.01326       -1.80865
H          3.07243        1.75132        0.48015
H          1.47674        1.50418        1.20481
H          1.42506        4.15375       -1.89259
H          3.25302       -0.85135       -2.47108
H          4.48576       -2.94127       -1.97946
H          4.39809       -3.93923        0.29859
H          3.06491       -2.83347        2.08592
H          1.82146       -0.74041        1.60553
H         -1.82550       -0.19356        4.33840
H         -0.10473       -0.39223        3.91003
H         -0.83823        1.22216        3.91159
