39
omegacsd_GALSEM_03.log	Energy:    -242.5924652
S         -2.52873        0.11725        1.40339
O         -3.60313        0.70664        2.14863
O         -1.37661       -0.43850        2.13433
N         -3.12210       -1.34347        0.65205
C         -4.15294       -1.35844       -0.30804
O         -4.58523       -0.29188       -0.70528
C         -4.64579       -2.70949       -0.77592
C         -3.61828       -3.40558       -1.65818
C         -1.96739        1.11971        0.16619
C         -0.59835        1.28653       -0.17044
N          0.38844        0.64149        0.55134
C          1.80025        0.83549        0.34831
C          2.60183       -0.30621        0.16593
C          3.98277       -0.14588        0.02105
C          4.56369        1.12998        0.05436
C          3.75410        2.25492        0.24056
C          2.37369        2.11830        0.39244
C          4.88243       -1.33939       -0.17992
F          4.28596       -2.54196       -0.19560
F          5.83437       -1.47061        0.75966
F          5.56980       -1.31312       -1.33520
C         -0.27142        2.12755       -1.27883
C         -1.28455        2.79534       -1.94224
N         -2.61065        2.68660       -1.58718
C         -2.92702        1.86601       -0.57520
H         -2.74027       -2.24210        0.97915
H         -5.59255       -2.55423       -1.34409
H         -4.92334       -3.34717        0.08849
H         -3.35116       -2.79014       -2.52879
H         -2.69192       -3.63615       -1.11943
H         -4.01500       -4.35385       -2.04543
H          0.13132       -0.00565        1.35128
H          2.13677       -1.29429        0.14058
H          5.64273        1.25392       -0.06051
H          4.20690        3.24783        0.27435
H          1.74645        2.99717        0.55513
H          0.75879        2.22694       -1.61100
H         -1.08117        3.45639       -2.79548
H         -4.00731        1.78122       -0.33343
