41
omegacsd_CEJTIU_16.log	Energy:     -37.3089095
C         -4.59905       -2.39876       -0.95411
N         -3.84791       -1.79118        0.17919
C         -4.66736       -1.75255        1.42178
C         -3.08438       -0.62684       -0.11700
C         -2.57332       -0.41533       -1.42123
C         -1.69400        0.62955       -1.68089
C         -1.31244        1.50087       -0.64476
C         -1.82908        1.32177        0.64915
C         -2.69833        0.26840        0.90998
N         -0.41594        2.58001       -0.96051
C          0.60879        3.09508       -0.15080
O          1.06987        4.19814       -0.39268
N          1.09837        2.34881        0.96732
C          1.35540        0.95207        1.13584
O          1.61191        0.60489        2.27024
C          1.31566        0.04605       -0.06729
C          2.52812       -0.84542       -0.14198
C          2.88059       -1.66273        0.94276
C          3.98655       -2.50972        0.84728
C          4.74484       -2.54840       -0.32793
C          4.39656       -1.73112       -1.40726
C          3.29169       -0.87905       -1.31801
H         -5.39016       -1.75001       -1.36143
H         -3.89861       -2.65552       -1.76854
H         -5.05937       -3.34488       -0.62331
H         -5.46696       -0.99562        1.40494
H         -5.12617       -2.74135        1.58948
H         -4.01326       -1.55689        2.29041
H         -2.85381       -1.08233       -2.23553
H         -1.30390        0.76955       -2.68903
H         -1.55229        2.00513        1.45378
H         -3.07343        0.13841        1.92473
H         -0.67054        3.16005       -1.76852
H          1.43102        2.94560        1.74749
H          1.19837        0.60947       -1.01821
H          0.39572       -0.58900       -0.00008
H          2.30043       -1.61570        1.86801
H          4.25959       -3.13959        1.69274
H          5.60540       -3.21007       -0.39983
H          4.98820       -1.75478       -2.32088
H          3.03242       -0.24345       -2.16192
