35
omegacsd_DIAVER_09.log	Energy:     -19.8715471
N         -3.38209       -0.40159        1.60402
C         -3.94509        0.53984        0.75078
N         -3.58140        0.73303       -0.56874
C         -2.53391       -0.02976       -1.03379
C         -1.90787       -1.02531       -0.22680
C         -2.37587       -1.15004        1.09080
C         -0.79615       -1.89809       -0.71916
C          0.57866       -1.38740       -0.35959
C          0.87205       -0.01465       -0.41706
C          2.15307        0.44081       -0.10769
C          3.16884       -0.48452        0.25827
C          2.86671       -1.85093        0.31083
C          1.57777       -2.29688        0.00463
O          4.48394       -0.21599        0.57015
C          4.89204        1.17199        0.65032
O          2.54299        1.76946       -0.13826
C          1.50752        2.76057       -0.35149
N         -2.09470        0.28587       -2.31893
N         -4.91809        1.37756        1.27324
H         -1.93372       -1.88503        1.77859
H         -0.84783       -2.02622       -1.82284
H         -0.93672       -2.92732       -0.31716
H          0.08837        0.68648       -0.69857
H          3.65027       -2.55227        0.59583
H          1.36322       -3.36222        0.05603
H          4.77843        1.65229       -0.32792
H          4.30662        1.69436        1.41337
H          5.94517        1.08084        0.93768
H          0.74819        2.69572        0.43387
H          2.07584        3.69549       -0.27577
H          1.07069        2.64445       -1.34761
H         -2.68621        0.87679       -2.88929
H         -1.54882       -0.39712       -2.82169
H         -5.33336        1.13982        2.16206
H         -5.46824        1.93830        0.64091
