61
omegapdb_1v2k_03.log	Energy:     -58.1907633
N          9.65904        2.58114       -0.64639
C          9.14647        2.57571        0.61476
C          8.10631        1.73679        1.01840
C          7.54500        0.82980        0.08347
C          8.06912        0.83790       -1.23355
C          9.11241        1.71513       -1.54258
N          6.59321       -0.12879        0.48680
C          5.84279       -0.85565       -0.58798
C          4.74035       -1.73649        0.01342
C          3.67519       -0.88565        0.73420
C          4.30374        0.34972        1.40709
C          5.78869        0.11655        1.72031
C          2.64423       -0.42549       -0.30278
O          2.86908        0.47867       -1.09457
N          1.45274       -1.16389       -0.42351
C          0.41650       -0.68203       -1.37845
C         -0.71523        0.05436       -0.63041
N         -1.30617       -0.76654        0.46323
C         -0.26028       -1.26952        1.39428
C          0.89202       -2.00077        0.66587
S         -2.46273       -1.96239       -0.04114
O         -2.04328       -2.51047       -1.31824
O         -2.62259       -2.84757        1.09700
C         -3.89363       -1.01867       -0.27434
C         -4.58079       -0.50737        0.79974
C         -5.76398        0.26781        0.59660
C         -6.22051        0.49774       -0.73031
C         -5.48823       -0.05622       -1.82781
C         -4.35540       -0.79688       -1.60302
C         -7.40367        1.27579       -0.93736
C         -8.06846        1.77842        0.15148
C         -7.62928        1.55728        1.48869
C         -6.49666        0.81396        1.70054
Cl        -9.49506        2.71845       -0.07710
H          9.60272        3.28347        1.31692
H          7.74103        1.77778        2.04076
H          7.68442        0.17923       -2.00342
H          9.54137        1.74182       -2.55162
H          5.38561       -0.13823       -1.31379
H          6.57453       -1.48713       -1.14054
H          4.27868       -2.34646       -0.78866
H          5.18022       -2.46212        0.72660
H          3.19013       -1.51954        1.51932
H          4.20631        1.23538        0.73666
H          3.75592        0.60711        2.33043
H          5.91616       -0.77908        2.37123
H          6.19475        0.98165        2.29376
H          0.01313       -1.56770       -1.93070
H          0.88890       -0.00846       -2.13223
H         -0.32266        0.99463       -0.17533
H         -1.50957        0.36558       -1.34186
H          0.13620       -0.39587        1.96028
H         -0.72957       -1.94849        2.14731
H          0.52724       -2.95434        0.21279
H          1.68767       -2.28327        1.39274
H         -4.24141       -0.68526        1.82666
H         -5.85036        0.11747       -2.84134
H         -3.79698       -1.23612       -2.43944
H         -7.75645        1.45447       -1.95358
H         -8.19981        1.98040        2.31645
H         -6.13624        0.62586        2.71352
