24
omegapdb_1gs5_20.log	Energy:    -233.5384979
C          0.56126        0.29643       -0.69228
C          0.77355        1.64410        0.04328
O         -0.07689        2.29320        0.60171
O          2.03608        2.13851        0.01453
C         -0.91888        0.01035       -0.98167
C         -1.83689        0.16483        0.23379
C         -3.14224       -0.55415        0.01892
O         -3.34170       -1.53171       -0.65522
O         -4.22683       -0.04485        0.70119
N          1.16897       -0.79341        0.10420
C          2.55172       -1.00764        0.07432
O          3.26988       -0.20499       -0.51461
C          3.04823       -2.21667        0.79640
H          1.10871        0.36881       -1.68082
H          2.74391        1.52556       -0.39616
H         -1.26371        0.69416       -1.78867
H         -1.02440       -1.01456       -1.40940
H         -1.35845       -0.22493        1.15763
H         -1.98283        1.25259        0.44793
H         -4.05562        0.76733        1.22993
H          0.53411       -1.41294        0.59936
H          4.14147       -2.31561        0.66143
H          2.87121       -2.16041        1.88114
H          2.59803       -3.15088        0.43081
