57
omegacsd_SPIRIL_01.log	Energy:     -32.0928345
C         -2.37916       -0.59535        1.27671
C         -3.34322       -0.97571        0.13852
C         -3.53418       -2.52240        0.09226
O         -2.69405       -3.39117        0.00400
N         -4.90549       -2.79059        0.12952
C         -5.72784       -1.57013        0.30885
N         -4.72325       -0.46082        0.47034
C         -5.12528        0.86067        0.10773
C         -4.23654        1.93532        0.34082
C         -4.64810        3.24346        0.10386
C         -5.94061        3.51305       -0.36313
C         -6.82095        2.45406       -0.59107
C         -6.42574        1.13326       -0.36490
C         -2.80990       -0.50296       -1.22703
C         -1.36436       -0.97722       -1.44945
N         -0.49850       -0.46999       -0.33243
C          0.94432       -0.78924       -0.59714
C          1.82162        0.17538        0.22167
C          3.27956       -0.01884       -0.04810
C          4.24671        0.72920        0.50817
C          5.67362        0.47186        0.19521
C          6.15099        0.65680       -1.11288
C          7.49371        0.42150       -1.41793
C          8.33424       -0.00290       -0.38528
C          7.89424       -0.19875        0.92722
C          6.54877        0.04623        1.20886
F          9.61974       -0.23223       -0.66533
C          3.98272        1.84919        1.46387
C         -0.94875       -1.06240        0.97122
H         -2.72506       -1.01606        2.23920
H         -2.39147        0.51268        1.40363
H         -5.30881       -3.71257        0.20935
H         -6.40388       -1.43045       -0.57042
H         -6.34041       -1.61854        1.24162
H         -3.22929        1.73997        0.72287
H         -3.95632        4.06606        0.28720
H         -6.25398        4.53743       -0.54395
H         -7.82934        2.65489       -0.95319
H         -7.13248        0.33197       -0.56153
H         -2.83413        0.60664       -1.27801
H         -3.45682       -0.86024       -2.04888
H         -1.34044       -2.08807       -1.54214
H         -0.98513       -0.55561       -2.40494
H          1.20691       -1.84379       -0.36573
H          1.15291       -0.64107       -1.67939
H          1.52121        1.22241       -0.00663
H          1.61673        0.04941        1.30643
H          3.53426       -0.82737       -0.73463
H          5.46830        0.98990       -1.89501
H          7.86901        0.56536       -2.42946
H          8.57575       -0.53231        1.70761
H          6.17236       -0.09749        2.22177
H          3.55377        1.47551        2.40413
H          4.89174        2.41027        1.71691
H          3.26648        2.57011        1.04349
H         -0.90699       -2.17755        0.97379
H         -0.26484       -0.70675        1.77152
