25
omegapdb_1m5f_14.log	Energy:    -162.2236919
O         -0.21782       -2.24617        0.94829
C         -1.27109       -2.09353        0.06704
O         -1.69544       -3.03968       -0.54128
C         -1.67717       -0.67307        0.03254
N         -2.89831       -0.24655        0.38675
O         -2.93930        1.11609        0.22278
C         -1.68025        1.54631       -0.25536
C         -0.85579        0.44949       -0.39007
C          0.55458        0.40465       -0.83520
C          1.50773        0.29292        0.37672
N          1.49853        1.59010        1.11397
C          2.94213        0.00967       -0.05296
O          3.96541        0.25071        0.54105
O          2.98436       -0.65912       -1.25213
C         -1.54867        2.98567       -0.47541
H          0.07964       -3.19682        1.01615
H          0.72469       -0.45392       -1.52472
H          0.80831        1.31540       -1.42386
H          1.18100       -0.58746        1.01095
H          2.32109        1.67891        1.71284
H          0.67631        1.64300        1.71043
H          3.91565       -0.87026       -1.53907
H         -0.55416        3.34775       -0.14805
H         -2.31054        3.56655        0.07085
H         -1.65017        3.24480       -1.54407
