66
omegapdb_1z1r_14.log	Energy:    -255.7037549
C          0.24552       -1.30494        0.09278
C         -0.32202       -2.60814       -0.51969
C         -1.78798       -2.76988       -0.24991
C         -2.69805       -2.74393       -1.31933
C         -4.06726       -2.65342       -1.07401
C         -4.50388       -2.57541        0.25622
C         -3.62538       -2.72948        1.33723
C         -2.26202       -2.84684        1.07175
O         -5.86091       -2.33090        0.46805
C         -6.12531       -0.99700        0.99576
C         -5.74159        0.06993       -0.03542
C         -5.38093        1.41311        0.59234
C         -4.19017        1.35408        1.51173
O         -4.27684        1.21961        2.72214
N         -2.87056        1.48866        1.01865
C         -2.43960        1.57113       -0.38055
C         -1.26756        0.59478       -0.71640
O         -0.75829        0.67824       -1.82949
N         -0.78604       -0.23915        0.28003
C         -1.94886        2.98856       -0.74798
C         -3.10095        3.92784       -1.02450
O         -4.24700        3.57330       -1.25686
N         -2.79306        5.28509       -1.02483
C          1.46684       -0.78148       -0.72376
O          1.28785       -1.00860       -2.12347
C          2.73981       -1.58719       -0.38167
N          3.92188       -0.79157       -0.80023
S          5.43684       -1.22998       -0.10166
O          5.12795       -2.05218        1.05455
O          6.26332       -1.74243       -1.17432
C          6.07538        0.29050        0.41939
C          5.71232        0.80984        1.66558
C          6.23150        2.03785        2.08716
C          7.11553        2.74082        1.26118
C          7.48429        2.21734        0.01693
C          6.96472        0.98935       -0.40313
H          0.59829       -1.52985        1.13966
H          0.24850       -3.47527       -0.12938
H         -0.11760       -2.61115       -1.61879
H         -2.33364       -2.76291       -2.34703
H         -4.79163       -2.61923       -1.88569
H         -4.00761       -2.74423        2.35598
H         -1.56113       -2.97408        1.89532
H         -7.21473       -1.05533        1.17080
H         -5.59887       -0.87346        1.95931
H         -6.57824        0.21631       -0.75083
H         -4.90056       -0.29083       -0.66353
H         -6.24234        1.80010        1.18457
H         -5.23065        2.17769       -0.21407
H         -2.14864        1.65480        1.72651
H         -3.29657        1.29096       -1.06387
H         -1.38797       -0.41597        1.09464
H         -1.31789        2.92259       -1.67331
H         -1.27675        3.38346        0.03905
H         -1.87035        5.65008       -0.87947
H         -3.51457        5.95932       -1.23890
H          1.61194        0.30964       -0.54999
H          0.56481       -0.40664       -2.47627
H          2.69122       -2.57300       -0.90386
H          2.80022       -1.79844        0.71193
H          3.89679       -0.62445       -1.81967
H          5.03186        0.25289        2.31778
H          5.95203        2.44284        3.05845
H          7.52177        3.69830        1.58991
H          8.17799        2.76219       -0.62187
H          7.26468        0.57121       -1.37109
