40
omegapdb_2byh_16.log	Energy:     -89.3326403
O          6.55221       -2.53830       -0.74109
C          6.51299       -1.43913       -0.22443
C          7.75847       -0.81275        0.34116
C          5.24105       -0.67072       -0.13744
C          5.11701        0.52413        0.58695
C          3.90215        1.20063        0.64197
C          2.77930        0.67969       -0.04444
C          2.89376       -0.51803       -0.77509
C          4.11586       -1.18026       -0.81352
N          1.56419        1.41436        0.04200
C          0.31593        1.05183       -0.54055
O          0.17223        0.02065       -1.16356
C         -0.73815        2.04370       -0.28962
C         -0.64733        3.47388       -0.39017
N         -1.84941        4.03635       -0.11106
N         -2.70350        3.00672        0.16808
C         -2.07115        1.76353        0.06117
C         -2.76731        0.50812        0.28686
C         -3.86582        0.14836       -0.51660
C         -4.51161       -1.06689       -0.32705
Cl        -5.85465       -1.50273       -1.28405
C         -4.04516       -1.96836        0.66081
O         -4.73501       -3.13368        0.76076
C         -2.95156       -1.64999        1.47242
C         -2.32383       -0.41052        1.26757
O         -1.26641       -0.01138        2.02892
H          7.96758        0.16471       -0.11023
H          8.63347       -1.45366        0.14951
H          7.69085       -0.67927        1.42755
H          5.97498        0.93619        1.12034
H          3.82564        2.12383        1.20974
H          2.02822       -0.92612       -1.31013
H          4.21607       -2.11637       -1.37576
H          1.59384        2.26332        0.61428
H          0.21858        4.05604       -0.66588
H         -3.66563        3.19426        0.41709
H         -4.20772        0.82753       -1.30420
H         -4.35448       -3.74589        1.44752
H         -2.59046       -2.34053        2.22500
H         -0.95271       -0.72143        2.65087
