61
omegapdb_1v2k_14.log	Energy:     -57.1552873
N          8.59108        3.23502        0.54840
C          8.04328        3.20478       -0.69608
C          6.86152        2.52348       -1.00478
C          6.18185        1.82684        0.02493
C          6.75127        1.85312        1.32236
C          7.93534        2.56237        1.53374
N          4.92101        1.23513       -0.21207
C          4.35569        0.29941        0.79800
C          4.51722       -1.17672        0.40843
C          3.93926       -1.47244       -0.98679
C          3.50591       -0.19975       -1.73077
C          4.58468        0.88679       -1.63081
C          2.81792       -2.51664       -0.97200
O          2.93461       -3.52698       -1.65546
N          1.71615       -2.41054       -0.10998
C          1.20583       -1.15079        0.47700
C         -0.05576       -0.66671       -0.27791
N         -1.11984       -1.70523       -0.32911
C         -0.59921       -2.98535       -0.88671
C          0.67731       -3.47964       -0.17592
S         -2.06558       -1.86304        1.12131
O         -2.64909       -3.18824        1.08094
O         -1.23598       -1.47012        2.24861
C         -3.29408       -0.66561        0.89032
C         -4.28697       -0.84869       -0.04116
C         -5.29868        0.14436       -0.22219
C         -5.26484        1.31955        0.57752
C         -4.22331        1.47663        1.54609
C         -3.26493        0.50658        1.69805
C         -6.27497        2.31713        0.39698
C         -7.25204        2.11205       -0.54293
C         -7.30554        0.94059       -1.35199
C         -6.34316       -0.02255       -1.18910
Cl        -8.47691        3.30231       -0.77609
H          8.59045        3.75643       -1.47050
H          6.48081        2.55722       -2.01865
H          6.27350        1.33565        2.15080
H          8.39725        2.60350        2.52767
H          4.80845        0.48511        1.79956
H          3.26702        0.54873        0.89774
H          4.04986       -1.81980        1.18085
H          5.59244       -1.44932        0.42011
H          4.76135       -1.95256       -1.59258
H          3.32137       -0.43533       -2.79899
H          2.54409        0.18483       -1.33897
H          4.22235        1.82278       -2.11668
H          5.49392        0.55434       -2.18410
H          1.98504       -0.35314        0.47727
H          0.95039       -1.34490        1.55323
H          0.20152       -0.39742       -1.32872
H         -0.45147        0.25805        0.19481
H         -1.39407       -3.76734       -0.82742
H         -0.39471       -2.82468       -1.97067
H          0.45718       -3.80854        0.86493
H          1.09157       -4.36924       -0.71251
H         -4.32697       -1.75424       -0.65728
H         -4.21068        2.37615        2.16170
H         -2.47154        0.61437        2.44830
H         -6.25222        3.21958        1.00853
H         -8.10819        0.83041       -2.08231
H         -6.35863       -0.93196       -1.79268
