44
omegacsd_CUHNEY10_19.log	Energy:     -22.2823104
Cl        -1.63194       -5.40127        0.20656
C         -0.63541       -4.01814        0.05231
C          0.14286       -3.59517        1.14468
N          0.94225       -2.50607        1.06805
C          1.00031       -1.82799       -0.11970
N          1.90509       -0.72256       -0.18341
C          3.06428       -0.55717        0.67828
O          3.57836       -1.40986        1.33304
C          3.50159        0.86962        0.41808
N          4.55228        1.50621        0.94948
C          4.72995        2.79371        0.52028
C          3.87495        3.39981       -0.42253
N          2.79930        2.74450       -0.96104
C          2.62333        1.48998       -0.52581
C          1.52360        0.51969       -0.92520
O          0.30184        1.02482       -0.34345
C         -0.84583        0.97620       -1.15862
O         -0.82049        0.45062       -2.25481
N         -1.87506        1.67363       -0.55524
C         -3.25787        1.47567       -1.08376
C         -4.22608        1.16853        0.07191
N         -4.28164        2.22831        1.12358
C         -2.96714        2.94192        1.27462
C         -1.76841        2.06546        0.88286
C         -5.37074        3.21327        0.85359
C          0.22639       -2.18907       -1.24771
C         -0.59929       -3.30684       -1.15193
H          0.12856       -4.12559        2.10689
H          5.58528        3.32892        0.95237
H          4.03321        4.42865       -0.77003
H          1.40705        0.34631       -2.02408
H         -3.54596        2.41688       -1.60686
H         -3.27291        0.66577       -1.84844
H         -3.91470        0.23333        0.59599
H         -5.24031        0.96425       -0.33090
H         -2.92802        3.89605        0.70326
H         -2.88576        3.20695        2.35482
H         -1.71057        1.16184        1.53301
H         -0.81213        2.62501        1.01765
H         -5.40297        3.94768        1.67539
H         -5.28278        3.75930       -0.09671
H         -6.33864        2.68519        0.86470
H          0.25818       -1.60595       -2.17191
H         -1.20672       -3.62266       -2.00302
