40
omegapdb_2byh_10.log	Energy:     -92.1081969
O          6.54596       -2.38400       -0.17538
C          6.43748       -1.26463        0.28396
C          7.60477       -0.59207        0.95243
C          5.14966       -0.51902        0.20281
C          4.97994        0.77417        0.71872
C          3.75420        1.42630        0.61598
C          2.66900        0.77607       -0.01609
C          2.82706       -0.52084       -0.53619
C          4.06075       -1.15449       -0.42309
N          1.43870        1.49391       -0.09739
C          0.23199        1.02345       -0.67224
O          0.12127       -0.09477       -1.13744
C         -0.85429        2.01352       -0.64774
C         -0.78610        3.40018       -1.02010
N         -2.01665        3.96197       -0.94316
N         -2.86948        2.97557       -0.53265
C         -2.20236        1.75763       -0.33979
C         -2.88076        0.54978        0.08649
C         -2.72723       -0.62539       -0.67914
C         -3.41862       -1.77898       -0.33415
Cl        -3.25225       -3.20079       -1.27020
C         -4.26614       -1.79638        0.80193
O         -4.97680       -2.88313        1.18842
C         -4.40465       -0.65874        1.60444
C         -3.69442        0.49214        1.24457
O         -3.86850        1.55029        2.09162
H          7.39390       -0.35244        2.00176
H          7.89143        0.33500        0.44121
H          8.48689       -1.25200        0.94291
H          5.80996        1.28585        1.20846
H          3.64256        2.42779        1.02250
H          1.98881       -1.03145       -1.02459
H          4.19765       -2.16607       -0.82466
H          1.43787        2.42774        0.32258
H          0.08765        3.94896       -1.33881
H         -3.86428        3.15734       -0.45910
H         -2.04491       -0.62270       -1.54440
H         -4.83433       -3.68269        0.60433
H         -5.03631       -0.67252        2.49336
H         -3.19375        2.26699        1.96561
