57
omegacsd_SPIRIL_16.log	Energy:     -31.3038724
C          2.12872       -0.27542        1.40164
C          2.94344       -0.74794        0.18339
C          3.03402       -2.30784        0.19356
O          2.13883       -3.11821        0.29112
N          4.37558       -2.66536        0.03362
C          5.28656       -1.49472        0.04038
N          4.38340       -0.32808        0.33887
C          4.84963        0.97864        0.02878
C          6.21573        1.19354       -0.26636
C          6.69163        2.49248       -0.45222
C          5.83523        3.59160       -0.35674
C          4.48344        3.38038       -0.06581
C          3.98531        2.09317        0.12455
C          2.32915       -0.32504       -1.16396
C          0.82875       -0.65614       -1.25158
N          0.02684       -0.31167       -0.03229
C         -0.61510       -1.52712        0.57311
C         -1.84685       -1.94588       -0.25142
C         -2.95745       -0.94660       -0.16634
C         -4.26439       -1.24913       -0.12835
C         -5.28367       -0.17270       -0.06601
C         -6.23227       -0.03841       -1.09401
C         -7.19698        0.97010       -1.04331
C         -7.18645        1.83070        0.05802
C         -6.26026        1.72790        1.09936
C         -5.30344        0.71306        1.02479
F         -8.10621        2.79780        0.11791
C         -4.81255       -2.64168       -0.15296
C          0.83362        0.43636        0.97030
H          1.88000       -1.13975        2.05065
H          2.73607        0.39352        2.04460
H          4.73181       -3.60665        0.11880
H          6.04920       -1.57227        0.85251
H          5.79846       -1.40409       -0.94868
H          6.91671        0.36940       -0.34265
H          7.74766        2.64672       -0.67604
H          6.21388        4.59882       -0.50474
H          3.80788        4.23287        0.01369
H          2.92862        1.96241        0.35509
H          2.86578       -0.80951       -2.00219
H          2.47377        0.76374       -1.32227
H          0.70857       -1.73109       -1.51566
H          0.37626       -0.06915       -2.08377
H         -0.93622       -1.28789        1.60919
H          0.09186       -2.38856        0.64890
H         -1.56978       -2.07732       -1.31955
H         -2.17814       -2.94817        0.09471
H         -2.61903        0.09462       -0.15773
H         -6.21181       -0.72447       -1.94045
H         -7.93124        1.07972       -1.83888
H         -6.27955        2.41482        1.94307
H         -4.56556        0.60500        1.82010
H         -5.04618       -2.95336       -1.18005
H         -4.09793       -3.37058        0.25551
H         -5.73584       -2.72658        0.43556
H          1.07470        1.43064        0.52638
H          0.19967        0.64243        1.85934
