36
omegapdb_1qxw_15.log	Energy:    -107.9980205
C         -4.91710       -1.17244        0.31423
C         -4.60330       -0.63596       -1.06885
C         -3.90304       -0.04918        0.15850
N         -2.49860       -0.32440        0.46355
C         -1.57532        0.54060       -0.33183
C         -0.14011        0.29556        0.17471
C          0.95240        1.18358       -0.49742
N          0.49307        2.59620       -0.39691
C          2.34424        0.95296        0.13238
C          3.04751       -0.28613       -0.43149
C          4.40017       -0.52594        0.25258
C          5.09974       -1.76432       -0.30195
O          0.10720       -1.08804       -0.08782
O          0.00451        0.47483        1.57487
H         -5.88020       -0.95675        0.77133
H         -4.58826       -2.17248        0.58870
H         -5.34441       -0.04396       -1.59799
H         -4.04782       -1.25555       -1.76741
H         -4.18495        0.96470        0.48266
H         -2.26071       -1.31354        0.29304
H         -1.84063        1.61311       -0.17866
H         -1.62006        0.35554       -1.42642
H          0.98069        0.91215       -1.58669
H          0.41416        2.87466        0.58087
H          1.16064        3.22272       -0.83725
H          2.98211        1.84212       -0.03378
H          2.23980        0.86632        1.23564
H          3.19094       -0.17979       -1.52439
H          2.39901       -1.18214       -0.30378
H          4.25658       -0.63532        1.34587
H          5.05115        0.36084        0.12202
H          6.06588       -1.92626        0.18978
H          5.29148       -1.67411       -1.37739
H          4.50129       -2.67017       -0.15160
H          0.94538       -1.38731        0.34560
H         -0.79815        0.15598        2.06178
