39
omegacsd_GALSEM_01.log	Energy:    -243.6770726
S         -3.11153       -0.20182        1.01527
O         -2.26198       -0.19893        2.19207
O         -4.55223       -0.17190        1.15036
N         -2.88584       -1.76446        0.24473
C         -1.61765       -2.26448       -0.10464
O         -0.65089       -1.53744        0.06055
C         -1.57397       -3.67141       -0.65495
C         -0.23376       -3.96142       -1.31883
C         -2.57854        0.93950       -0.10524
C         -1.24197        1.41264       -0.18549
N         -0.31517        1.07164        0.77418
C          1.10174        1.31140        0.61652
C          1.93644        0.22228        0.30718
C          3.31286        0.43812        0.21060
C          3.85146        1.71875        0.41576
C          3.00628        2.78882        0.72059
C          1.62620        2.59565        0.82447
C          4.25288       -0.69143       -0.12050
F          3.69965       -1.90186       -0.29429
F          5.19877       -0.90768        0.81028
F          4.95463       -0.50093       -1.25229
C         -0.90627        2.30205       -1.26021
C         -1.89430        2.71201       -2.12968
N         -3.21208        2.30609       -2.01844
C         -3.52203        1.45241       -1.03632
H         -3.71260       -2.36449        0.12123
H         -2.39913       -3.84358       -1.37723
H         -1.74766       -4.38826        0.17894
H         -0.07702       -3.33562       -2.20710
H         -0.16099       -5.00983       -1.63013
H          0.60447       -3.75494       -0.63646
H         -0.55605        0.35506        1.50592
H          1.48432       -0.76784        0.14741
H          4.92821        1.88600        0.34036
H          3.42720        3.78229        0.88376
H          0.96468        3.42738        1.07348
H          0.11944        2.64047       -1.38643
H         -1.68911        3.39311       -2.96608
H         -4.58267        1.14725       -0.96808
