25
omegapdb_1m5f_08.log	Energy:    -164.0916380
O          0.83598       -2.32654        0.70051
C          1.74634       -1.81723       -0.20352
O          2.32991       -2.54743       -0.95901
C          1.80430       -0.34610       -0.06507
N          2.91326        0.30844        0.30928
O          2.63879        1.65248        0.30414
C          1.29577        1.83303       -0.09602
C          0.73060        0.59714       -0.33432
C         -0.64862        0.27527       -0.75713
C         -1.61425        0.26788        0.45507
N         -1.39915       -0.81117        1.44306
C         -3.04768        0.13436       -0.06065
O         -3.94475        0.93719       -0.01140
O         -3.23219       -1.07868       -0.68216
C          0.85250        3.22546       -0.15667
H          0.79108       -3.32450        0.67008
H         -0.68802       -0.71047       -1.27340
H         -0.99745        1.01015       -1.51617
H         -1.54416        1.25246        0.99946
H         -0.47276       -0.73184        1.86460
H         -1.43554       -1.72793        0.99494
H         -4.16878       -1.21341       -0.99163
H          0.04907        3.43119        0.57285
H          0.45951        3.48523       -1.15543
H          1.67248        3.93317        0.06166
