36
omegapdb_1qxw_09.log	Energy:    -107.6583066
C         -4.25481       -0.86171       -0.95107
C         -4.32684       -1.31266        0.49616
C         -3.02516       -0.74888       -0.05062
N         -2.55945        0.53996        0.46676
C         -1.48700        1.14065       -0.37787
C         -0.12203        0.55775        0.05450
C          1.10979        1.40534       -0.39477
N          0.91377        2.78290        0.13702
C          2.43600        0.75799        0.06053
C          2.93612       -0.30510       -0.92461
C          4.04883       -1.17685       -0.32615
C          3.52034       -2.19476        0.68219
O         -0.06635       -0.74511       -0.53667
O          0.01208        0.36777        1.45210
H         -4.26694       -1.60265       -1.74581
H         -4.79345        0.02843       -1.26022
H         -4.38787       -2.37360        0.72709
H         -4.91642       -0.73948        1.20747
H         -2.17395       -1.43183       -0.23557
H         -3.33167        1.20478        0.57712
H         -1.62049        0.96374       -1.46771
H         -1.47170        2.24576       -0.22621
H          1.08517        1.47013       -1.51507
H          0.84485        2.76106        1.15477
H          1.70597        3.37355       -0.09916
H          2.30269        0.31471        1.07140
H          3.21487        1.53329        0.18662
H          2.09187       -0.94988       -1.25247
H          3.30464        0.18499       -1.84658
H          4.57511       -1.70769       -1.14460
H          4.81405       -0.53605        0.15435
H          4.33899       -2.76413        1.13683
H          2.84304       -2.91653        0.21254
H          2.96986       -1.70796        1.49700
H          0.67300       -1.27280       -0.15237
H         -0.85915        0.11024        1.86092
