46
omegacsd_CDBMPI10_10.log	Energy:     -37.9238698
O         -3.04019        2.22331       -0.00619
C         -2.55837        1.12938       -0.26685
N         -1.31550        1.07215       -0.92566
C         -0.40970       -0.10565       -1.08884
C          0.57416       -0.15224        0.11698
N          1.34941        1.10963        0.16164
C          0.55051        2.37546        0.18715
C         -0.52515        2.34181       -0.93162
C         -0.06620        2.59361        1.56868
C          2.74465        1.17253        0.09537
O          3.30441        2.25796        0.06785
C          3.49061       -0.12930        0.07407
C          3.92693       -0.65422       -1.14838
C          4.66361       -1.84231       -1.16413
C          4.96533       -2.49659        0.03502
C          4.53380       -1.96311        1.25424
C          3.79540       -0.77634        1.27785
C         -1.09820       -1.44844       -1.28360
C         -3.32306       -0.12652        0.02409
C         -4.23965       -0.61680       -0.91412
C         -5.00458       -1.74549       -0.60471
C         -4.86014       -2.37233        0.63739
C         -3.95467       -1.86821        1.57736
C         -3.18569       -0.74054        1.27575
H          0.18494        0.10941       -2.02526
H          1.24625       -1.03215        0.02604
H          0.01534       -0.27610        1.07108
H          1.26013        3.22649       -0.03308
H         -1.21849        3.21090       -0.81124
H         -0.04849        2.45031       -1.92964
H          0.70341        2.60924        2.34993
H         -0.79550        1.82017        1.83214
H         -0.59912        3.55315        1.61131
H          3.70406       -0.13292       -2.07913
H          5.00898       -2.25394       -2.11147
H          5.54287       -3.42017        0.01989
H          4.77826       -2.46870        2.18740
H          3.46739       -0.35115        2.22626
H         -1.92195       -1.37841       -2.00768
H         -0.39198       -2.19107       -1.67721
H         -1.51618       -1.86530       -0.35898
H         -4.36069       -0.11493       -1.87433
H         -5.71980       -2.13121       -1.33004
H         -5.45979       -3.24967        0.87663
H         -3.85454       -2.34924        2.54928
H         -2.49386       -0.33557        2.01285
