39
omegacsd_GALSEM_15.log	Energy:    -237.9844317
S          2.80998        0.72306        0.69333
O          4.01745        1.49159        0.80642
O          2.19853        0.10069        1.86403
N          3.05131       -0.52286       -0.49864
C          3.97445       -1.58721       -0.29090
O          4.58544       -1.61588        0.75207
C          4.08968       -2.57137       -1.43498
C          4.93139       -3.77533       -1.03010
C          1.60364        1.63559       -0.10431
C          0.21172        1.45015        0.08576
N         -0.24455        0.48224        0.96512
C         -1.62096        0.11292        1.14080
C         -2.43676       -0.19237        0.03794
C         -3.75540       -0.60013        0.26418
C         -4.25616       -0.72086        1.56678
C         -3.42703       -0.42946        2.65639
C         -2.11276       -0.01115        2.45532
C         -4.66837       -0.92923       -0.89050
F         -4.15685       -0.76615       -2.12146
F         -5.79601       -0.19792       -0.91967
F         -5.10580       -2.19985       -0.89553
C         -0.68467        2.28608       -0.64803
C         -0.16874        3.24313       -1.50360
N          1.18367        3.44222       -1.67840
C          2.02618        2.66663       -0.97938
H          2.52699       -0.49631       -1.37902
H          4.55039       -2.06366       -2.31010
H          3.08591       -2.90700       -1.76787
H          4.45951       -4.34281       -0.21644
H          5.91977       -3.46571       -0.65821
H          5.08628       -4.45765       -1.87282
H          0.43410        0.04510        1.65417
H         -2.03048       -0.12083       -0.97309
H         -5.28492       -1.04243        1.74242
H         -3.81495       -0.52820        3.67255
H         -1.47106        0.21822        3.30909
H         -1.76053        2.20106       -0.50953
H         -0.81879        3.90817       -2.08875
H          3.10456        2.87177       -1.11465
