39
omegacsd_FIBREN_16.log	Energy:     -49.6762646
N         -2.82340        0.62900        1.66736
C         -1.57265        1.19023        1.78098
N         -0.51273        1.00519        0.92259
C         -0.65475        0.18425       -0.18608
C         -1.92445       -0.43318       -0.38537
C         -2.95131       -0.16206        0.57482
O         -4.08508       -0.84769        0.20773
C         -3.68959       -1.53933       -1.01672
N         -2.44257       -1.30783       -1.36579
C         -4.76700       -2.34284       -1.59652
N          0.34924        0.00383       -1.10570
C          1.80091        0.31232       -0.95565
C          2.09775        1.67052       -0.30669
C          1.57537        2.81255       -1.14500
O          2.02725        3.19474       -2.19467
O          0.50044        3.49350       -0.63345
C          2.50131       -0.80595       -0.19929
C          2.21637       -1.06294        1.14821
C          2.87518       -2.09864        1.81669
C          3.82153       -2.87900        1.14502
C          4.10850       -2.62219       -0.19950
C          3.45007       -1.58925       -0.87244
C         -1.34586        2.09884        2.94016
H         -5.63621       -1.71785       -1.86994
H         -5.13133       -3.10715       -0.88727
H         -4.43182       -2.86580       -2.51038
H          0.13471       -0.64652       -1.87597
H          2.19087        0.35359       -2.01963
H          3.20165        1.78273       -0.19919
H          1.70693        1.70975        0.73555
H          0.09602        3.07396        0.17606
H          1.47889       -0.45758        1.67826
H          2.64922       -2.29768        2.86361
H          4.33396       -3.68545        1.66766
H          4.84577       -3.22814       -0.72470
H          3.68182       -1.39726       -1.91951
H         -0.27819        2.24369        3.16163
H         -1.83497        1.71283        3.85223
H         -1.79009        3.09116        2.74977
