24
omegapdb_1gs5_08.log	Energy:    -239.7445818
C          1.08943       -0.08991        0.29500
C          2.54785       -0.00733       -0.16006
O          3.01560        0.48871       -1.15458
O          3.34725       -0.62377        0.76638
C          0.53548       -1.49268       -0.03119
C         -0.81151       -1.74638        0.64888
C         -1.96003       -1.31985       -0.23694
O         -2.20749       -1.72749       -1.34394
O         -2.81371       -0.37978        0.28413
N          0.35530        0.99737       -0.38198
C         -0.68823        1.66180        0.27107
O         -1.02498        1.30136        1.39526
C         -1.34065        2.76497       -0.49522
H          1.04163        0.07832        1.41540
H          4.31442       -0.60200        0.52099
H          1.26828       -2.25573        0.31151
H          0.44280       -1.63672       -1.13036
H         -0.92710       -2.83231        0.86456
H         -0.85416       -1.24069        1.63884
H         -2.52507        0.02986        1.15461
H          0.61023        1.19488       -1.35075
H         -1.87365        3.44461        0.19264
H         -2.10488        2.36468       -1.18558
H         -0.64692        3.37764       -1.08516
