24
omegapdb_1gs5_04.log	Energy:    -238.3742262
C         -0.33809        0.55418        0.84710
C         -0.19994        1.65220       -0.24034
O          0.83212        2.07520       -0.69472
O         -1.36842        2.20152       -0.67033
C          1.00346        0.34245        1.57809
C          1.86993       -0.84975        1.16746
C          2.21412       -0.83649       -0.29550
O          1.54681       -1.26053       -1.21676
O          3.45361       -0.31193       -0.50926
N         -0.90750       -0.66468        0.24255
C         -2.29179       -0.75042        0.04221
O         -3.00699        0.19434        0.36483
C         -2.78870       -2.02959       -0.54698
H         -1.08202        0.94408        1.60920
H         -2.21380        1.79506       -0.27866
H          0.79348        0.24614        2.66587
H          1.60992        1.27532        1.46898
H          1.36241       -1.80923        1.41205
H          2.80633       -0.83864        1.77433
H          3.67782       -0.22784       -1.48078
H         -0.25857       -1.29939       -0.24030
H         -3.89282       -2.03480       -0.56944
H         -2.44868       -2.16804       -1.58546
H         -2.47246       -2.91426        0.02403
