45
omegacsd_SEYMIS_10.log	Energy:     -69.0216539
O         -4.94178       -2.14763       -0.25443
N         -5.03201       -0.76241       -0.13489
C         -3.79365       -0.26505       -0.00142
C         -2.83084       -1.35587       -0.04211
C         -1.36326       -1.36036        0.06930
O         -0.74157       -2.32628        0.48484
N         -0.72033       -0.19496       -0.37600
C          0.68504       -0.01842       -0.33414
C          1.34172        1.16928       -0.75746
N          2.69758        0.97643       -0.57650
C          3.74039        1.95642       -0.88974
C          2.92050       -0.29900       -0.04954
C          1.66700       -0.93356        0.10726
C          4.21089       -0.89038        0.28548
O          4.44388       -1.98773        0.73765
O          5.25099       -0.00952        0.01864
C          6.60403       -0.49929        0.31832
C          7.50594        0.65503       -0.06332
C         -3.59459       -2.50332       -0.18523
C         -3.28467       -3.92792       -0.27314
C         -3.52493        1.16701        0.18019
C         -4.04521        2.10019       -0.73005
C         -3.78791        3.46172       -0.54805
C         -3.02239        3.89297        0.53992
C         -2.51267        2.96212        1.45210
C         -2.76220        1.59927        1.27776
H         -1.26374        0.58835       -0.73993
H          0.91116        2.06985       -1.15025
H          4.45595        1.53668       -1.62724
H          4.33520        2.19109        0.01762
H          3.31695        2.88921       -1.29231
H          1.49670       -1.92902        0.49236
H          6.63828       -0.75144        1.39259
H          6.77104       -1.40939       -0.28380
H          7.27053        1.55803        0.51506
H          8.55950        0.40660        0.11720
H          7.39984        0.91481       -1.12475
H         -2.26609       -4.12681        0.13350
H         -3.99559       -4.55401        0.29048
H         -3.28753       -4.29033       -1.31566
H         -4.65596        1.76190       -1.56839
H         -4.19244        4.18779       -1.25245
H         -2.82791        4.95545        0.68158
H         -1.92322        3.29960        2.30431
H         -2.37060        0.87233        1.99147
