46
omegacsd_CDBMPI10_04.log	Energy:     -39.5140285
O         -3.05391        2.11092       -0.86323
C         -2.52766        1.16168       -0.30322
N         -1.33210        1.34457        0.40227
C         -0.58507        0.24918        1.08502
C          0.91234        0.64340        1.24701
N          1.42467        1.28839        0.02087
C          0.70708        2.52867       -0.42314
C         -0.64632        2.65842        0.32229
C          1.57733        3.76067       -0.17161
C          2.37644        0.71300       -0.82777
O          2.67480        1.26821       -1.87322
C          3.01476       -0.56650       -0.37101
C          2.50365       -1.79089       -0.81808
C          3.12731       -2.98049       -0.43040
C          4.25619       -2.94397        0.39514
C          4.76700       -1.71730        0.83278
C          4.14830       -0.52363        0.44968
C         -1.19038       -0.04051        2.46173
C         -3.12343       -0.21510       -0.30433
C         -2.68151       -1.16238       -1.23641
C         -3.27688       -2.42660       -1.26870
C         -4.30927       -2.73903       -0.37747
C         -4.75422       -1.78522        0.54382
C         -4.16517       -0.51765        0.58055
H         -0.64792       -0.67295        0.44719
H          1.03987        1.34915        2.10031
H          1.50422       -0.26255        1.50258
H          0.51906        2.42839       -1.52955
H         -1.29989        3.38771       -0.21882
H         -0.50695        3.05902        1.34933
H          1.06707        4.67992       -0.47975
H          2.50738        3.69518       -0.75860
H          1.86450        3.86612        0.87912
H          1.63358       -1.81455       -1.47359
H          2.73714       -3.93603       -0.77790
H          4.74210       -3.87241        0.69286
H          5.65163       -1.69050        1.46752
H          4.55010        0.43478        0.77832
H         -0.60559       -0.78694        3.01011
H         -1.25143        0.86140        3.08269
H         -2.21215       -0.43268        2.37219
H         -1.88857       -0.91034       -1.94073
H         -2.94094       -3.16617       -1.99417
H         -4.77234       -3.72463       -0.40624
H         -5.56635       -2.02589        1.22841
H         -4.52267        0.23560        1.28297
