40
omegapdb_2byh_00.log	Energy:     -96.2566404
O          7.43708       -0.93204        1.22663
C          6.63381       -1.24836        0.37187
C          6.96590       -2.29772       -0.65033
C          5.28870       -0.60523        0.30812
C          4.32896       -0.93094       -0.66007
C          3.08604       -0.29929       -0.67526
C          2.79483        0.67590        0.29338
C          3.75094        1.01460        1.27672
C          4.98472        0.37257        1.27405
N          1.54420        1.36946        0.33715
C          0.45915        1.18385       -0.53469
O          0.47554        0.35506       -1.44179
C         -0.68663        2.06090       -0.29320
C         -0.65934        3.49223       -0.15076
N         -1.91987        3.96695       -0.01803
N         -2.74985        2.88190       -0.07369
C         -2.04288        1.68485       -0.24075
C         -2.73392        0.41062       -0.27774
C         -3.58180        0.07723        0.79955
C         -4.34604       -1.07694        0.77239
Cl        -5.37388       -1.47163        2.08319
C         -4.28316       -1.94815       -0.34919
O         -5.01784       -3.08318       -0.45089
C         -3.43513       -1.66444       -1.41440
C         -2.63977       -0.50061       -1.36720
O         -1.85467       -0.33062       -2.44200
H          6.28128       -3.15382       -0.59768
H          7.98344       -2.68804       -0.48825
H          6.93328       -1.90053       -1.67279
H          4.54198       -1.68701       -1.41837
H          2.34433       -0.56684       -1.43688
H          3.53667        1.76619        2.03280
H          5.73944        0.62246        2.02933
H          1.43237        2.04619        1.10005
H          0.21078        4.13153       -0.16212
H         -3.75339        3.00247       -0.00308
H         -3.63557        0.73879        1.66957
H         -5.59775       -3.25758        0.34285
H         -3.36551       -2.33488       -2.27313
H         -1.04415        0.29044       -2.28492
