45
omegacsd_SEYMIS_08.log	Energy:     -71.2427793
O          4.43826       -2.64968       -0.22867
N          4.74454       -1.30956       -0.00189
C          3.59787       -0.61905        0.08235
C          2.47554       -1.52716       -0.10394
C          1.02296       -1.28898       -0.09314
O          0.22022       -2.15770        0.21379
N          0.61874       -0.00945       -0.50181
C         -0.73681        0.40226       -0.54209
C         -1.15304        1.70505       -0.92786
N         -2.53257        1.73866       -0.84964
C         -3.35048        2.91033       -1.17244
C         -3.00229        0.49067       -0.42370
C         -1.88842       -0.35433       -0.22800
C         -4.41607        0.17935       -0.23131
O         -5.37256        0.91882       -0.38179
O         -4.56804       -1.12885        0.15138
C         -5.92863       -1.60128        0.42093
C         -6.37043       -1.13310        1.79127
C          3.04976       -2.77603       -0.27836
C          2.51877       -4.11991       -0.49228
C          3.55374        0.82423        0.34853
C          4.29456        1.70863       -0.45095
C          4.24983        3.08069       -0.18923
C          3.47697        3.56948        0.86882
C          2.74686        2.68549        1.67123
C          2.78311        1.31297        1.41648
H          1.31121        0.68873       -0.77490
H         -0.55217        2.54039       -1.23173
H         -4.43411        2.69729       -1.00967
H         -3.08164        3.76994       -0.53375
H         -3.22564        3.20123       -2.23060
H         -1.91878       -1.38321        0.10037
H         -6.59329       -1.24748       -0.38695
H         -5.77531       -2.69471        0.35950
H         -5.61497       -1.35981        2.55553
H         -6.52968       -0.04444        1.80656
H         -7.30919       -1.60958        2.09578
H          3.07101       -4.89014        0.07057
H          1.45262       -4.16844       -0.17190
H          2.54584       -4.41240       -1.55620
H          4.90951        1.32267       -1.26530
H          4.82539        3.76867       -0.80767
H          3.44796        4.63923        1.07290
H          2.15127        3.06643        2.50056
H          2.21907        0.62160        2.04485
