57
omegacsd_SPIRIL_14.log	Energy:     -34.3829438
C         -2.36650       -0.34710        1.32703
C         -2.44678        0.44423        0.00758
C         -1.57748        1.73155        0.18311
O         -0.37009        1.81918        0.26552
N         -2.43372        2.82848        0.27062
C         -3.85668        2.46350        0.06288
N         -3.81650        0.99971       -0.28666
C         -5.01344        0.24509       -0.13920
C         -5.00573       -1.15780       -0.30666
C         -6.20183       -1.87125       -0.27889
C         -7.42313       -1.21767       -0.08313
C         -7.43473        0.16887        0.08268
C         -6.24840        0.90434        0.05991
C         -1.92591       -0.35105       -1.20431
C         -1.62242       -1.81568       -0.84511
N         -0.74921       -2.02779        0.34152
C          0.70493       -2.10409        0.00949
C          1.32679       -0.84489       -0.62105
C          2.81786       -0.84896       -0.50823
C          3.55305        0.21927       -0.16102
C          5.03364        0.12063       -0.09048
C          5.83048        0.81021       -1.01918
C          7.22339        0.72687       -0.95863
C          7.78841       -0.05687        0.05144
C          7.02780       -0.75545        0.99304
C          5.63676       -0.65892        0.91037
F          9.11974       -0.14240        0.11976
C          2.99574        1.56386        0.17595
C         -1.01049       -1.05351        1.45237
H         -3.18408       -1.09540        1.38589
H         -2.52555        0.32048        2.19527
H         -2.13607        3.79314        0.29578
H         -4.30031        3.02169       -0.79698
H         -4.44407        2.67270        0.99018
H         -4.06862       -1.69897       -0.46711
H         -6.18282       -2.95359       -0.41170
H         -8.35066       -1.78249       -0.06206
H         -8.38144        0.68844        0.23355
H         -6.30454        1.98001        0.18741
H         -2.65991       -0.31367       -2.03569
H         -1.01141        0.13084       -1.60767
H         -1.18873       -2.33449       -1.72585
H         -2.58792       -2.34021       -0.61737
H          0.84436       -2.97753       -0.66429
H          1.24058       -2.35874        0.95231
H          0.89915        0.07270       -0.14056
H          1.04263       -0.76839       -1.69003
H          3.29593       -1.79990       -0.74719
H          5.35761        1.41203       -1.79519
H          7.84540        1.25696       -1.67721
H          7.49991       -1.35668        1.76760
H          5.01294       -1.19039        1.62935
H          1.89529        1.54318        0.29693
H          3.21340        2.29589       -0.61241
H          3.41650        1.95213        1.11245
H         -0.20469       -0.28415        1.53276
H         -0.98559       -1.65127        2.39168
