46
omegacsd_CDBMPI10_03.log	Energy:     -39.5139927
O          2.67346        1.26690       -1.87444
C          2.37581        0.71246       -0.82842
N          1.42526        1.28901        0.02089
C          0.70767        2.52914       -0.42350
C         -0.64606        2.65887        0.32136
N         -1.33144        1.34479        0.40147
C         -0.58441        0.24993        1.08509
C          0.91284        0.64460        1.24728
C         -1.19013       -0.03917        2.46174
C         -2.52744        1.16157       -0.30304
O         -3.05436        2.11069       -0.86275
C         -3.12292       -0.21534       -0.30408
C         -2.68008       -1.16289       -1.23546
C         -3.27526       -2.42719       -1.26777
C         -4.30833       -2.73944       -0.37724
C         -4.75415       -1.78537        0.54334
C         -4.16531       -0.51768        0.58008
C          1.57769        3.76125       -0.17161
C          3.01391       -0.56700       -0.37120
C          4.14705       -0.52392        0.45000
C          4.76562       -1.71755        0.83352
C          4.25502       -2.94428        0.39584
C          3.12648       -2.98095       -0.43016
C          2.50297       -1.79142       -0.81834
H          0.52009        2.42878       -1.52998
H         -0.50718        3.05977        1.34832
H         -1.29964        3.38767       -0.22030
H         -0.64687       -0.67253        0.44769
H          1.50492       -0.26097        1.50360
H          1.03999        1.35095        2.10014
H         -2.21276       -0.42911        2.37213
H         -0.60681       -0.78718        3.00953
H         -1.24917        0.86247        3.08321
H         -1.88662       -0.91101       -1.93923
H         -2.93866       -3.16701       -1.99268
H         -4.77122       -3.72513       -0.40602
H         -5.56678       -2.02590        1.22738
H         -4.52351        0.23575        1.28195
H          2.50802        3.69588       -0.75811
H          1.86439        3.86674        0.87925
H          1.06743        4.68043       -0.47994
H          4.54863        0.43451        0.77878
H          5.64999       -1.69063        1.46863
H          4.74084       -3.87268        0.69387
H          2.73642       -3.93656       -0.77761
H          1.63322       -1.81522       -1.47423
