57
omegacsd_SPIRIL_17.log	Energy:     -29.8937841
C          2.44176       -1.23265       -1.16498
C          3.62838       -0.93436       -0.23098
C          4.66355       -2.09923       -0.31888
O          4.47650       -3.28420       -0.16037
N          5.92120       -1.54218       -0.57322
C          5.86096       -0.08001       -0.81741
N          4.39164        0.25126       -0.77333
C          4.03411        1.56466       -0.30680
C          2.77164        2.06176       -0.69591
C          2.40269        3.35990       -0.35124
C          3.27606        4.17779        0.37659
C          4.52602        3.68624        0.75941
C          4.91028        2.38458        0.42681
C          3.19100       -0.81588        1.24478
C          1.72839       -0.38288        1.40852
N          0.76184       -1.31652        0.73504
C         -0.47859       -0.57614        0.32737
C         -1.63477       -1.58543        0.19142
C         -2.92417       -0.88770       -0.10685
C         -4.07294       -1.07834        0.55920
C         -5.30201       -0.34373        0.16187
C         -5.77103        0.71870        0.95152
C         -6.92741        1.41327        0.58960
C         -7.59357        1.01395       -0.57272
C         -7.15607       -0.03860       -1.38158
C         -5.99586       -0.71681       -1.00064
F         -8.70107        1.67044       -0.92759
C         -4.25058       -2.01388        1.71136
C          1.38461       -2.04968       -0.40696
H          2.00565       -0.28056       -1.53831
H          2.78028       -1.77231       -2.06893
H          6.74674       -2.07714       -0.80114
H          6.46882        0.46016       -0.05093
H          6.23463        0.18671       -1.83522
H          2.09947        1.42520       -1.27721
H          1.42927        3.74392       -0.65629
H          2.98214        5.19126        0.63907
H          5.20905        4.31925        1.32575
H          5.88473        2.01455        0.74079
H          3.84780       -0.11541        1.79445
H          3.32188       -1.80348        1.74415
H          1.61589        0.66985        1.06836
H          1.46043       -0.40221        2.49058
H         -0.35403        0.00102       -0.61231
H         -0.73807        0.15831        1.12146
H         -1.41711       -2.31846       -0.61395
H         -1.69965       -2.19152        1.12307
H         -2.87995       -0.18568       -0.94176
H         -5.22631        1.00535        1.85117
H         -7.29514        2.23876        1.19627
H         -7.69919       -0.32424       -2.28062
H         -5.62637       -1.54269       -1.60890
H         -4.88222       -2.86787        1.42783
H         -3.29149       -2.41885        2.06988
H         -4.73653       -1.51960        2.56331
H          1.85767       -2.96606        0.02609
H          0.60179       -2.40971       -1.10588
