45
omegacsd_FABSOQ10_04.log	Energy:     -96.9133169
S          0.34151        0.59046       -1.51087
C          1.10081        1.24999       -0.09165
C          0.34571        1.01523        1.01783
C         -0.87449        0.30294        0.72411
C         -1.02884        0.01460       -0.60087
C         -2.11285       -0.73320       -1.30385
O         -1.72739       -2.11463       -1.41837
C         -3.46747       -0.60830       -0.63392
C         -3.93584        0.63694       -0.20257
C         -5.19981        0.76409        0.38275
C         -5.98799       -0.38452        0.52178
O         -7.24644       -0.43112        1.07841
C         -7.82434        0.80849        1.55337
C         -5.54144       -1.64964        0.08326
C         -4.28384       -1.74642       -0.49695
C          2.41256        1.93925       -0.26246
O          2.57396        2.23351       -1.66949
C          3.57415        1.04859        0.11235
C          4.20003        0.25505       -0.85601
C          5.27416       -0.57165       -0.51337
C          5.70213       -0.58968        0.81932
O          6.73816       -1.34682        1.31869
C          7.45299       -2.20683        0.39867
C          5.08344        0.20160        1.81165
C          4.02121        1.01830        1.44574
H          0.60437        1.31153        2.02435
H         -1.58405        0.04211        1.49946
H         -2.20402       -0.43874       -2.38326
H         -1.45029       -2.47199       -0.54725
H         -3.31211        1.52500       -0.31955
H         -5.54706        1.73633        0.71299
H         -7.94436        1.51373        0.72611
H         -8.80034        0.47153        1.92704
H         -7.21793        1.22539        2.36226
H         -6.18691       -2.51682        0.20134
H         -3.91957       -2.71179       -0.86061
H          2.44109        2.90218        0.30384
H          1.99907        2.98245       -1.92901
H          3.84592        0.29267       -1.89077
H          5.75136       -1.17911       -1.27427
H          7.93777       -1.61088       -0.37981
H          6.77791       -2.95768       -0.02192
H          8.19670       -2.67200        1.05879
H          5.44734        0.15737        2.83504
H          3.53326        1.63491        2.20022
