25
omegapdb_1m5f_22.log	Energy:    -164.5477560
O          2.79595       -0.82676        1.22577
C          2.50843       -0.52011       -0.08264
O          3.00337       -1.13697       -0.99048
C          1.53460        0.59450       -0.12662
N          1.75307        1.75386       -0.76049
O          0.63214        2.53610       -0.61977
C         -0.32082        1.81857        0.13818
C          0.20772        0.59039        0.47176
C         -0.37459       -0.49860        1.28663
C         -1.10508       -1.58180        0.46480
N         -0.16212       -2.30662       -0.40665
C         -2.27323       -0.97041       -0.32189
O         -2.49923       -1.00796       -1.50535
O         -3.16114       -0.34400        0.52621
C         -1.58103        2.51981        0.38351
H          3.42607       -1.59919        1.29903
H          0.44205       -0.99508        1.87091
H         -1.08059       -0.08278        2.04039
H         -1.55311       -2.32596        1.18750
H          0.26723       -1.69375       -1.09898
H         -0.62453       -3.05757       -0.91579
H         -3.96651       -0.00280        0.05072
H         -1.46347        3.31319        1.14284
H         -1.96609        3.00845       -0.52840
H         -2.36254        1.82726        0.74826
