41
omegacsd_CEJTIU_04.log	Energy:     -45.1474965
C          6.86578        0.66045       -0.96990
N          6.12243       -0.25153       -0.05365
C          6.62605       -1.64965       -0.16842
C          4.69794       -0.09964       -0.05547
C          3.84864       -1.16365        0.32105
C          2.47599       -0.97348        0.45484
C          1.91761        0.29047        0.20826
C          2.74918        1.36408       -0.16810
C          4.11913        1.16842       -0.29925
N          0.51092        0.56402        0.32067
C         -0.44310       -0.38822        0.65267
O         -0.25576       -1.56940        0.88955
N         -1.82248        0.06694        0.73512
C         -2.31656        1.36383        0.50072
O         -1.56814        2.27637        0.18982
C         -3.80550        1.55716        0.69921
C         -4.64410        0.47914        0.07462
C         -4.74167        0.39389       -1.32269
C         -5.52142       -0.60763       -1.90598
C         -6.20610       -1.52509       -1.10166
C         -6.10939       -1.43878        0.29041
C         -5.32947       -0.44028        0.88150
H          6.64346        1.70913       -0.70502
H          6.63227        0.51130       -2.03519
H          7.94924        0.51918       -0.82532
H          6.24086       -2.24728        0.67661
H          7.72481       -1.65010       -0.08150
H          6.34982       -2.15104       -1.10869
H          4.25682       -2.15241        0.52525
H          1.83845       -1.81485        0.75070
H          2.32815        2.35107       -0.35770
H          4.74718        2.01322       -0.57928
H          0.21170        1.54382        0.13732
H         -2.48439       -0.69478        0.95735
H         -4.01213        1.65756        1.78882
H         -4.08678        2.55209        0.27460
H         -4.20957        1.10561       -1.95284
H         -5.59498       -0.67410       -2.99119
H         -6.81237       -2.30511       -1.55930
H         -6.64225       -2.15213        0.91849
H         -5.26337       -0.37916        1.96610
