36
omegapdb_1qxw_12.log	Energy:    -105.3356583
C         -5.24121       -0.55509        0.15188
C         -4.77799        0.07170       -1.14840
C         -4.01562        0.34603        0.14896
N         -2.70615       -0.24706        0.42704
C         -1.60438        0.47119       -0.28305
C         -0.26327       -0.10877        0.21774
C          0.99742        0.65812       -0.31373
N          1.20619        1.93836        0.40966
C          2.25245       -0.22997       -0.21102
C          3.47293        0.42921       -0.86474
C          4.72149       -0.46101       -0.79813
C          5.31840       -0.54422        0.60512
O         -0.14595       -0.12323        1.62993
O         -0.27772       -1.47344       -0.20575
H         -6.15555       -0.20369        0.62562
H         -5.13297       -1.62778        0.29900
H         -5.36551        0.86408       -1.60385
H         -4.33744       -0.55856       -1.91640
H         -4.09672        1.34742        0.59946
H         -2.67802       -1.24334        0.15911
H         -1.65749        0.37511       -1.38999
H         -1.65971        1.55547       -0.04642
H          0.81295        0.90497       -1.39342
H          0.33518        2.45379        0.49838
H          1.53665        1.75970        1.35729
H          2.46901       -0.45608        0.85224
H          2.04808       -1.20314       -0.70202
H          3.67474        1.40636       -0.37924
H          3.24659        0.66973       -1.92157
H          5.48392       -0.06316       -1.49777
H          4.48234       -1.47832       -1.16447
H          5.59486        0.44728        0.98241
H          6.22037       -1.16547        0.61713
H          4.60965       -0.97650        1.32038
H         -1.01468       -0.31801        2.06691
H          0.31155       -2.01884        0.35904
