34
omegapdb_2f7p_13.log	Energy:    -115.1395520
C         -0.94800        0.29164       -0.63996
N          0.42504        0.36192       -0.09492
C          1.47985        0.17143       -1.14166
C          2.82927        0.06649       -0.47198
C          3.29588        1.11797        0.33151
C          4.55105        1.02981        0.93779
C          5.34669       -0.10478        0.74458
C          4.88127       -1.15422       -0.05338
C          3.62397       -1.07293       -0.65975
C         -1.52159       -1.15688       -0.78650
O         -1.01236       -2.03450        0.22170
C         -3.04663       -1.01572       -0.55073
O         -3.60630       -2.19303        0.02275
C         -3.16484        0.12944        0.49985
O         -3.03479       -0.44920        1.81143
C         -1.91817        1.01188        0.33319
S         -2.38274        2.59619       -0.42430
H         -0.96890        0.77718       -1.65204
H          0.55263       -0.33410        0.65398
H          1.29165       -0.71153       -1.79178
H          1.46590        1.06766       -1.80751
H          2.66824        1.99680        0.48544
H          4.91037        1.84636        1.56187
H          6.32522       -0.17053        1.21570
H          5.49767       -2.03903       -0.20251
H          3.26724       -1.89715       -1.27410
H         -1.24151       -1.65831       -1.73067
H         -1.21055       -1.65605        1.12748
H         -3.63195       -0.82147       -1.47032
H         -2.87721       -2.82563        0.28697
H         -4.13358        0.66319        0.45022
H         -3.68965       -1.19267        1.90053
H         -1.43612        1.18066        1.32942
H         -2.86562        3.23120        0.66587
