44
omegacsd_CUHNEY10_02.log	Energy:     -30.6569411
Cl        -5.27690        2.73032       -0.11162
C         -4.10672        1.48419       -0.03023
C         -3.01194        1.49949       -0.91295
N         -2.06270        0.53675       -0.88218
C         -2.18843       -0.47213        0.04165
N         -1.15937       -1.45579       -0.00094
C         -1.10032       -2.64463        0.81508
O         -1.91087       -2.94798        1.64479
C          0.14002       -3.35630        0.34039
N          0.59835       -4.54789        0.74542
C          1.74491       -4.96720        0.12858
C          2.38951       -4.20264       -0.86595
N          1.91735       -2.98297       -1.27228
C          0.79949       -2.57189       -0.65994
C          0.04878       -1.26452       -0.87685
O          0.83794       -0.23450       -0.25397
C          1.13911        0.89687       -1.04367
O          1.00121        0.88505       -2.24408
N          1.50937        1.96886       -0.21958
C          1.85971        1.70822        1.20593
C          3.36422        1.41267        1.37708
N          4.26637        2.43332        0.76690
C          3.87968        2.68470       -0.65253
C          2.38348        2.99532       -0.86455
C          4.30535        3.69256        1.56570
C         -3.26628       -0.54396        0.95316
C         -4.23631        0.45476        0.90841
H         -2.88163        2.29166       -1.66355
H          2.13527       -5.94084        0.45182
H          3.30428       -4.55230       -1.36243
H         -0.20994       -1.00453       -1.93554
H          1.56351        2.61293        1.78259
H          1.24535        0.86392        1.59530
H          3.61024        1.30483        2.45423
H          3.61490        0.43488        0.90369
H          4.49920        3.51167       -1.05930
H          4.16527        1.77490       -1.23046
H          2.11092        3.97754       -0.41887
H          2.14457        3.05765       -1.95175
H          5.04163        4.37821        1.11521
H          3.34658        4.22299        1.65188
H          4.66553        3.46027        2.58126
H         -3.34094       -1.36330        1.67612
H         -5.08495        0.43445        1.59613
