66
omegapdb_1z1r_29.log	Energy:    -257.7493631
C          0.44239       -1.91656        0.12219
C         -0.68759       -2.96318        0.27557
C         -2.08006       -2.44133        0.08826
C         -2.87554       -2.09890        1.19393
C         -4.14922       -1.56206        1.00828
C         -4.61461       -1.37504       -0.30141
C         -3.86292       -1.76664       -1.41939
C         -2.59700       -2.30852       -1.21182
O         -5.88140       -0.82141       -0.43724
C         -5.94848        0.37172       -1.26812
C         -5.47206        1.59617       -0.48993
C         -3.95285        1.66528       -0.27720
C         -3.62605        1.68111        1.20060
O         -4.39811        2.07777        2.06188
N         -2.36569        1.26195        1.64687
C         -1.23343        0.77871        0.83970
C         -0.33484       -0.05238        1.78434
O         -0.28317        0.21091        2.97768
N          0.54794       -1.01227        1.28782
C         -0.37881        1.96335        0.33206
C         -0.81743        2.37945       -1.04590
O         -1.04909        1.57855       -1.94652
N         -0.94929        3.74021       -1.29055
C          0.37576       -1.17053       -1.23483
O          0.43787       -2.26141       -2.18153
C          1.53207       -0.19412       -1.54269
N          2.88890       -0.64353       -1.16119
S          3.46148       -0.08674        0.36670
O          3.29953       -1.17786        1.31779
O          2.77918        1.17950        0.59820
C          5.14224        0.16723        0.09260
C          5.56999        1.18847       -0.76250
C          6.93670        1.39502       -0.97272
C          7.87258        0.58188       -0.32413
C          7.44524       -0.43739        0.53470
C          6.07939       -0.64396        0.74367
H          1.40938       -2.50947        0.12219
H         -0.49295       -3.76765       -0.47323
H         -0.58760       -3.45489        1.26604
H         -2.49290       -2.23275        2.20670
H         -4.77506       -1.27062        1.85159
H         -4.26691       -1.65653       -2.42168
H         -1.99436       -2.62773       -2.06481
H         -7.03620        0.41684       -1.47281
H         -5.39736        0.21492       -2.20889
H         -5.98755        1.60916        0.50352
H         -5.82081        2.51301       -1.00344
H         -3.43285        0.83658       -0.80392
H         -3.54672        2.59024       -0.73755
H         -2.18516        1.33433        2.66405
H         -1.59953        0.15824       -0.02874
H          1.23936       -1.35035        1.99355
H         -0.39175        2.78743        1.07562
H          0.71673        1.68045        0.28989
H         -1.20031        4.06571       -2.21224
H         -0.75840        4.44649       -0.60145
H         -0.59808       -0.62923       -1.36643
H          0.27207       -1.93056       -3.08717
H          1.54071       -0.00048       -2.64389
H          1.31328        0.79991       -1.07187
H          3.03491       -1.63260       -1.40828
H          4.84090        1.82990       -1.26662
H          7.27153        2.18960       -1.63844
H          8.93950        0.74396       -0.48698
H          8.17551       -1.06706        1.04210
H          5.74254       -1.43854        1.42153
