66
omegapdb_1z1r_04.log	Energy:    -267.1217119
C         -0.29011       -1.88666        0.56343
C         -1.24192       -3.00631        0.07886
C         -2.66384       -2.51872        0.02073
C         -3.25694       -1.93344        1.15193
C         -4.50372       -1.31732        1.06314
C         -5.17063       -1.31972       -0.17040
C         -4.63557       -1.97422       -1.29400
C         -3.37980       -2.56837       -1.18731
O         -6.40330       -0.73295       -0.37908
C         -6.69963        0.49264        0.35115
C         -6.26647        1.69957       -0.48103
C         -4.74953        1.89265       -0.55225
C         -4.16538        2.30315        0.77982
O         -4.81599        2.70949        1.72784
N         -2.76256        2.28758        0.92702
C         -1.82606        1.61457        0.01872
C         -1.16040        0.43743        0.77884
O         -1.02091        0.42054        1.99093
N         -0.67148       -0.58272       -0.03347
C         -0.71820        2.57096       -0.46343
C          0.00906        1.94271       -1.64100
O         -0.56142        1.18186       -2.41754
N          1.32744        2.32190       -1.85086
C          1.18698       -2.17310        0.17110
O          1.53363       -3.52028        0.50313
C          2.14708       -1.19385        0.88399
N          3.54915       -1.34495        0.43440
S          4.16460       -0.20078       -0.69221
O          3.22712        0.92310       -0.71450
O          4.43364       -0.89594       -1.93217
C          5.65107        0.29406        0.02487
C          5.65107        1.04007        1.20815
C          6.86225        1.44267        1.77869
C          8.07116        1.09869        1.16370
C          8.07166        0.35356       -0.02101
C          6.86081       -0.04905       -0.59032
H         -0.36950       -1.80284        1.68457
H         -0.91169       -3.39065       -0.90850
H         -1.15569       -3.88015        0.75741
H         -2.72814       -1.92928        2.10666
H         -4.94954       -0.84140        1.93495
H         -5.19958       -1.99613       -2.22381
H         -2.94592       -3.05836       -2.05924
H         -6.24471        0.48366        1.35705
H         -7.80114        0.42871        0.43906
H         -6.73675        2.61150       -0.05047
H         -6.66369        1.59262       -1.51213
H         -4.51190        2.67584       -1.30599
H         -4.27139        0.96221       -0.93377
H         -2.39283        2.49883        1.86384
H         -2.37613        1.21965       -0.88777
H         -0.83921       -0.57395       -1.04828
H         -1.16875        3.53516       -0.79147
H         -0.03798        2.84380        0.36681
H          1.91201        2.62496       -1.07732
H          1.86228        1.78978       -2.53515
H          1.32590       -2.16586       -0.93663
H          1.47330       -3.67820        1.46769
H          1.79505       -0.14094        0.74540
H          2.12621       -1.37451        1.98537
H          3.77589       -2.34113        0.27136
H          4.70841        1.31362        1.69074
H          6.86399        2.02357        2.70037
H          9.01669        1.41308        1.60895
H          9.01376        0.08816       -0.49988
H          6.85992       -0.63019       -1.52114
