24
omegapdb_1gs5_06.log	Energy:    -236.9138922
C          1.20754       -0.05155        0.64971
C          2.23402       -0.91146       -0.09023
O          2.77183       -0.70266       -1.15132
O          2.52703       -2.02409        0.64736
C         -0.11068       -0.82785        0.82780
C         -0.83688       -1.13939       -0.47782
C         -2.34181       -1.15918       -0.31011
O         -3.07950       -2.02892       -0.69926
O         -2.91345       -0.08160        0.31081
N          1.07302        1.22285       -0.09856
C          0.04260        2.13742        0.14199
O         -0.82637        1.91217        0.97309
C          0.10655        3.38716       -0.68207
H          1.61767        0.18069        1.67861
H          3.19509       -2.61954        0.20119
H          0.10312       -1.77063        1.37889
H         -0.76908       -0.23034        1.50831
H         -0.51223       -2.12445       -0.88145
H         -0.58246       -0.41023       -1.27669
H         -2.27346        0.62826        0.63212
H          1.74245        1.36868       -0.86117
H          1.03910        3.94943       -0.52986
H          0.00486        3.19334       -1.75924
H         -0.72064        4.06461       -0.40188
