44
omegacsd_CUHNEY10_15.log	Energy:     -27.0899421
Cl         5.15780       -2.77961        0.27402
C          3.97881       -1.55336        0.08302
C          3.76252       -0.62810        1.11987
N          2.83907        0.35531        1.01338
C          2.12645        0.44963       -0.15138
N          1.20417        1.53828       -0.25254
C          1.29755        2.77047        0.51252
O          2.26314        3.16808        1.08672
C         -0.03985        3.44125        0.27363
N         -0.44806        4.62763        0.73991
C         -1.70543        5.00383        0.35134
C         -2.50718        4.20397       -0.48817
N         -2.08554        2.98917       -0.96035
C         -0.85911        2.62210       -0.56599
C         -0.12357        1.33813       -0.91216
O         -0.81613        0.27728       -0.21775
C         -0.97487       -0.93303       -0.91558
O         -0.60478       -1.04310       -2.06707
N         -1.45018       -1.92809       -0.06064
C         -2.13350       -3.08062       -0.72266
C         -3.65930       -2.86528       -0.80031
N         -4.30164       -2.49813        0.49534
C         -3.58331       -1.35127        1.12430
C         -2.05791       -1.54460        1.24640
C         -4.40714       -3.66560        1.41756
C          2.28196       -0.46076       -1.22297
C          3.22853       -1.47501       -1.09526
H          4.32765       -0.66963        2.06117
H         -2.05412        5.97303        0.73078
H         -3.50996        4.51964       -0.80328
H         -0.03211        1.11258       -2.00407
H         -1.88626       -3.98748       -0.12677
H         -1.70507       -3.23603       -1.73989
H         -4.14879       -3.77607       -1.20612
H         -3.89265       -2.04588       -1.51969
H         -4.02119       -1.14991        2.12476
H         -3.80448       -0.45061        0.50488
H         -1.57146       -0.61857        1.63241
H         -1.81425       -2.35729        1.96726
H         -4.95394       -3.35657        2.32368
H         -3.44957       -4.10811        1.72615
H         -5.01176       -4.44996        0.93319
H          1.67311       -0.38781       -2.12734
H          3.38190       -2.19586       -1.90150
