50
omegapdb_1xom_07.log	Energy:    -145.9663695
O         -6.26141       -1.46135        0.12936
C         -6.15950       -0.14284       -0.24812
O         -7.15847        0.47587       -0.52996
C         -4.72017        0.33066       -0.24156
C         -4.14435        0.25010        1.18358
C         -2.68801        0.72123        1.20511
C         -1.79839       -0.07522        0.21281
C         -2.41895       -0.05176       -1.21092
C         -3.87907       -0.50890       -1.21933
C         -1.74043       -1.47006        0.69499
N         -1.71542       -2.55868        1.07872
C         -0.38612        0.50258        0.11926
C         -0.15877        1.86940        0.29355
C          1.13075        2.40542        0.17398
C          2.20589        1.57543       -0.13604
O          3.51421        1.99732       -0.29029
C          3.80781        3.38585       -0.00084
C          1.98674        0.17948       -0.32904
C          0.69281       -0.33873       -0.19757
O          2.90390       -0.76536       -0.69832
C          4.34251       -0.50196       -0.55417
C          4.74005       -0.47153        0.92859
C          5.94196       -1.41896        1.06073
C          5.84509       -2.41292       -0.11355
C          4.97014       -1.75173       -1.19235
H         -7.20111       -1.78850        0.13089
H         -4.72338        1.40045       -0.58030
H         -4.22049       -0.79398        1.55814
H         -4.74815        0.86609        1.87787
H         -2.64091        1.80115        0.95449
H         -2.27598        0.62993        2.23002
H         -2.33601        0.97542       -1.61890
H         -1.81945       -0.69206       -1.88902
H         -3.94919       -1.58357       -0.94280
H         -4.29064       -0.43164       -2.24445
H         -0.98485        2.54264        0.52429
H          1.27374        3.47332        0.31848
H          3.28364        4.03871       -0.70471
H          3.56149        3.62151        1.03812
H          4.89234        3.42094       -0.16714
H          0.55858       -1.41206       -0.34955
H          4.57262        0.43526       -1.09889
H          3.89331       -0.82092        1.55025
H          4.97130        0.55185        1.26488
H          6.88917       -0.85389        1.01366
H          5.93834       -1.94154        2.03115
H          6.84250       -2.66883       -0.50545
H          5.38819       -3.36105        0.22225
H          5.55596       -1.48506       -2.08643
H          4.17120       -2.43854       -1.53876
