50
omegapdb_1xom_09.log	Energy:    -144.2436633
O         -5.38710        2.93479       -0.06040
C         -5.04047        1.60288       -0.15525
O         -5.81997        0.81830       -0.63727
C         -3.64529        1.40731        0.40405
C         -3.66965        0.24655        1.41953
C         -2.32613       -0.48271        1.46116
C         -2.00345       -1.16513        0.10004
C         -2.56717       -0.34207       -1.09538
C         -2.67205        1.14730       -0.76341
C         -2.68949       -2.47393        0.07939
N         -3.24790       -3.48453        0.06932
C         -0.49050       -1.34244       -0.01784
C          0.12509       -2.58841        0.10666
C          1.51910       -2.71239        0.00474
C          2.30939       -1.58860       -0.22221
O          3.68745       -1.59997       -0.34806
C          4.36119       -2.87412       -0.20355
C          1.69422       -0.30739       -0.34084
C          0.30445       -0.20277       -0.23253
O          2.29831        0.89392       -0.59973
C          3.75484        1.03638       -0.47223
C          4.17000        1.01148        1.00603
C          5.05584        2.24867        1.21546
C          4.66551        3.25679        0.11651
C          3.99739        2.45485       -1.01351
H         -6.29244        3.12768       -0.42102
H         -3.33266        2.34994        0.92514
H         -4.47415       -0.47646        1.15792
H         -3.92550        0.63195        2.42479
H         -2.32410       -1.23646        2.27272
H         -1.51677        0.22850        1.72248
H         -3.57488       -0.71908       -1.37779
H         -1.93130       -0.49474       -1.98898
H         -2.97791        1.71593       -1.66349
H         -1.66567        1.54163       -0.49253
H         -0.45755       -3.49278        0.28318
H          1.96552       -3.69955        0.10018
H          4.04000       -3.56509       -0.98860
H          5.41113       -2.58521       -0.34091
H          4.19327       -3.28422        0.79618
H         -0.14970        0.78899       -0.32577
H          4.23009        0.24379       -1.08388
H          3.27033        1.05590        1.64843
H          4.68848        0.07344        1.26351
H          6.12356        1.97977        1.13306
H          4.91947        2.67703        2.22161
H          3.96574        4.01130        0.51747
H          5.54507        3.81064       -0.24933
H          3.03454        2.91194       -1.31770
H          4.62435        2.42717       -1.91930
