25
omegapdb_1m5f_17.log	Energy:    -165.1073269
O         -2.38557        1.76228        1.11019
C         -1.92388        1.07054        0.02375
O         -2.66135        0.36397       -0.62159
C         -0.47555        1.32381       -0.15343
N          0.01449        2.29964       -0.92880
O          1.38623        2.24401       -0.87057
C          1.75322        1.18368       -0.01125
C          0.60989        0.57210        0.45914
C          0.48358       -0.56883        1.39433
C          0.56745       -1.95383        0.71328
N          1.92478       -2.19234        0.17585
C         -0.50639       -2.07424       -0.37799
O         -0.35337       -2.37877       -1.53561
O         -1.74115       -1.79626        0.13384
C          3.19340        1.00807        0.17515
H         -3.36450        1.62388        1.26331
H          1.28320       -0.51325        2.16971
H         -0.48194       -0.50455        1.94774
H          0.35208       -2.74090        1.49156
H          2.00828       -3.14107       -0.18821
H          2.12541       -1.56223       -0.60030
H         -2.45713       -1.72650       -0.57249
H          3.62146        1.80741        0.80601
H          3.74272        1.03211       -0.78165
H          3.42687        0.04460        0.66700
