57
omegacsd_SPIRIL_11.log	Energy:     -31.6916508
C          3.35501       -1.44427        1.41926
C          3.63375       -0.67470        0.11063
C          4.98339       -1.19287       -0.48275
O          5.27381       -2.32196       -0.80805
N          5.84363       -0.10253       -0.62632
C          5.27840        1.15232       -0.07576
N          3.90661        0.77952        0.42317
C          2.86484        1.75214        0.24679
C          1.69403        1.60986        1.02208
C          0.69766        2.58150        0.96518
C          0.84310        3.70321        0.14049
C          2.00073        3.84636       -0.62834
C          3.00789        2.88020       -0.58451
C          2.54269       -0.91317       -0.95012
C          1.98892       -2.34117       -0.79950
N          1.30421       -2.59084        0.50214
C         -0.18133       -2.47990        0.42892
C         -0.74798       -1.11597       -0.00973
C         -2.23936       -1.06068        0.08473
C         -2.97647       -0.03035       -0.36191
C         -4.45362       -0.04636       -0.22506
C         -5.21533       -0.98206       -0.94434
C         -6.60706       -1.00350       -0.82721
C         -7.20619       -0.07197        0.02517
C         -6.48007        0.87182        0.75771
C         -5.09035        0.87635        0.62176
F         -8.53599       -0.08361        0.14593
C         -2.39845        1.17948       -1.02482
C          1.86967       -1.76771        1.62027
H          3.92962       -2.39851        1.41054
H          3.73289       -0.87061        2.28928
H          6.80772       -0.16412       -0.91908
H          5.86491        1.51307        0.80458
H          5.27047        1.94916       -0.85986
H          1.57962        0.74065        1.67934
H         -0.19857        2.47033        1.57619
H          0.06356        4.45989        0.10366
H          2.12106        4.71775       -1.27219
H          3.89882        3.00606       -1.19885
H          2.94325       -0.76363       -1.97019
H          1.72116       -0.17797       -0.84856
H          1.31753       -2.58505       -1.64699
H          2.83495       -3.07369       -0.84907
H         -0.58411       -2.75550        1.42938
H         -0.53201       -3.27372       -0.26868
H         -0.30900       -0.30492        0.61171
H         -0.42668       -0.89409       -1.04943
H         -2.71848       -1.91913        0.55788
H         -4.71611       -1.69514       -1.60091
H         -7.20231       -1.72524       -1.38387
H         -6.97871        1.58184        1.41503
H         -4.49411        1.59806        1.17997
H         -1.59461        1.62835       -0.42401
H         -1.96517        0.91915       -2.00181
H         -3.14815        1.96056       -1.20592
H          1.30638       -0.81374        1.78107
H          1.74526       -2.37619        2.54515
