61
omegapdb_1v2k_13.log	Energy:     -56.3865992
N         -5.29709       -3.96991        1.89936
C         -6.23920       -3.05497        1.54014
C         -6.08434       -2.16883        0.47176
C         -4.89712       -2.21717       -0.30057
C         -3.91370       -3.16672        0.07286
C         -4.15742       -4.01269        1.15681
N         -4.75415       -1.43990       -1.47475
C         -5.59253       -0.21173       -1.60412
C         -5.06640        0.96896       -0.76515
C         -3.56766        0.80919       -0.45046
C         -2.81161        0.18612       -1.63520
C         -3.37545       -1.19747       -2.00514
C         -2.95264        2.18038       -0.17033
O         -3.13218        3.14879       -0.89167
N         -2.20023        2.35304        1.01024
C         -1.36256        3.57917        1.12931
C          0.06472        3.25410        1.62734
N          0.55328        1.91141        1.21824
C         -0.33296        0.81249        1.69489
C         -1.80291        1.25029        1.91023
S          1.09076        1.78526       -0.42892
O          1.18928        3.12994       -0.95064
O          0.25841        0.78663       -1.08910
C          2.67774        1.11294       -0.24844
C          2.90625       -0.21454       -0.51926
C          4.21490       -0.76699       -0.37157
C          5.27643        0.07672        0.05702
C          5.00948        1.45659        0.32166
C          3.74138        1.96065        0.16963
C          6.58881       -0.47437        0.21014
C          6.78858       -1.80271       -0.06340
C          5.73948       -2.66389       -0.49756
C          4.47782       -2.14876       -0.64748
Cl         8.36133       -2.48552        0.11594
H         -7.14983       -3.04527        2.15119
H         -6.87604       -1.46458        0.23302
H         -2.98552       -3.25051       -0.48774
H         -3.41848       -4.76292        1.46199
H         -6.64510       -0.44757       -1.33492
H         -5.60061        0.06131       -2.68463
H         -5.63559        1.06170        0.17757
H         -5.23583        1.91821       -1.31896
H         -3.46256        0.13309        0.43927
H         -1.72209        0.11283       -1.40964
H         -2.87073        0.86901       -2.50855
H         -3.44201       -1.29510       -3.11331
H         -2.68365       -2.00084       -1.66633
H         -1.86348        4.28468        1.82775
H         -1.32573        4.09641        0.13489
H          0.77195        4.03198        1.25361
H          0.10318        3.29990        2.73993
H         -0.30014       -0.05020        0.99000
H          0.08714        0.45157        2.66295
H         -2.48438        0.37636        1.77218
H         -1.94618        1.59939        2.95946
H          2.09334       -0.86823       -0.86044
H          5.83081        2.09835        0.64063
H          3.53795        3.01968        0.35746
H          7.40489        0.16952        0.53930
H          5.95844       -3.71242       -0.70319
H          3.65423       -2.78256       -0.98086
