41
omegacsd_CEJTIU_05.log	Energy:     -45.1474909
C          6.62608       -1.64957       -0.16752
N          6.12236       -0.25140       -0.05375
C          6.86552        0.66000       -0.97076
C          4.69788       -0.09963       -0.05553
C          3.84859       -1.16361        0.32106
C          2.47595       -0.97340        0.45499
C          1.91756        0.29056        0.20843
C          2.74913        1.36411       -0.16814
C          4.11906        1.16842       -0.29938
N          0.51093        0.56420        0.32111
C         -0.44316       -0.38812        0.65271
O         -0.25586       -1.56933        0.88942
N         -1.82256        0.06705        0.73500
C         -2.31654        1.36397        0.50070
O         -1.56809        2.27657        0.19004
C         -3.80555        1.55734        0.69890
C         -4.64407        0.47917        0.07447
C         -4.74148        0.39361       -1.32285
C         -5.52108       -0.60808       -1.90600
C         -6.20581       -1.52542       -1.10154
C         -6.10928       -1.43880        0.29050
C         -5.32949       -0.44009        0.88147
H          6.24206       -2.24616        0.67878
H          6.34873       -2.15214       -1.10682
H          7.72496       -1.64982       -0.08201
H          6.64328        1.70884       -0.70641
H          7.94900        0.51879       -0.82639
H          6.63168        0.51022       -2.03588
H          4.25669       -2.15241        0.52518
H          1.83841       -1.81474        0.75092
H          2.32808        2.35108       -0.35784
H          4.74711        2.01318       -0.57954
H          0.21173        1.54406        0.13790
H         -2.48452       -0.69465        0.95708
H         -4.01227        1.65796        1.78847
H         -4.08670        2.55215        0.27395
H         -4.20936        1.10524       -1.95307
H         -5.59452       -0.67482       -2.99120
H         -6.81196       -2.30557       -1.55911
H         -6.64215       -2.15203        0.91870
H         -5.26359       -0.37872        1.96606
