39
omegacsd_GALSEM_08.log	Energy:    -243.0951324
S          2.83363       -1.07157       -0.71816
O          4.05134       -1.79660       -0.49439
O          1.99795       -1.43410       -1.87569
N          3.24479        0.57032       -1.14271
C          3.90607        1.44393       -0.25601
O          4.11673        1.05599        0.87857
C          4.30362        2.80267       -0.78678
C          3.09083        3.70122       -0.98811
C          1.86277       -0.99325        0.66191
C          0.44467       -1.03380        0.64698
N         -0.23818       -1.12423       -0.55598
C         -1.66390       -1.03546       -0.69970
C         -2.38849        0.01885       -0.11680
C         -3.76824        0.09147       -0.33180
C         -4.42223       -0.85891       -1.12690
C         -3.68585       -1.89430       -1.71361
C         -2.31083       -1.99264       -1.50576
C         -4.58613        1.20157        0.27949
F         -3.92518        2.07197        1.05934
F         -5.58748        0.77149        1.06675
F         -5.19876        1.98743       -0.62268
C         -0.24686       -0.99690        1.89443
C          0.48122       -0.91106        3.06883
N          1.85615       -0.85910        3.09506
C          2.51148       -0.89872        1.92541
H          3.04599        0.89201       -2.09972
H          5.00494        3.26813       -0.05545
H          4.88367        2.70286       -1.72723
H          3.39814        4.70473       -1.31232
H          2.52183        3.82577       -0.05598
H          2.40210        3.31082       -1.74629
H          0.29345       -1.34849       -1.44545
H         -1.86572        0.76823        0.48226
H         -5.49935       -0.79964       -1.29586
H         -4.19386       -2.63324       -2.33667
H         -1.74169       -2.80511       -1.96209
H         -1.33135       -1.06885        1.93016
H         -0.00814       -0.88420        4.05212
H          3.61841       -0.84509        1.98025
