50
omegapdb_1xom_16.log	Energy:    -142.1534959
O         -5.36489       -1.49692        0.69911
C         -5.71102       -0.29168        0.13116
O         -6.86221        0.07377        0.17129
C         -4.51441        0.42068       -0.47001
C         -3.61739        0.96407        0.66048
C         -2.55698       -0.05710        1.07557
C         -1.58025       -0.38607       -0.09148
C         -2.26006       -0.17086       -1.47485
C         -3.74939       -0.51499       -1.42844
C         -1.24575       -1.82027        0.03276
N         -1.00663       -2.94613        0.12792
C         -0.31899        0.47456       -0.02894
C         -0.43215        1.84543        0.17875
C          0.70707        2.67205        0.22755
C          1.96484        2.11286        0.06157
O          3.17311        2.76985        0.08084
C          3.14086        4.19879        0.31766
C          2.09242        0.69912       -0.16411
C          0.95869       -0.10066       -0.21280
O          3.38673        0.28851       -0.31901
C          3.66227       -1.13479       -0.56565
C          3.50312       -1.94912        0.72654
C          4.80994       -2.74143        0.89053
C          5.88811       -1.98081        0.09496
C          5.15292       -1.11377       -0.94074
H         -6.14541       -1.96813        1.09893
H         -4.91787        1.29107       -1.05237
H         -4.22740        1.25532        1.53805
H         -3.12340        1.89999        0.31687
H         -3.07433       -0.98433        1.41206
H         -1.98836        0.30439        1.95313
H         -1.74911       -0.77958       -2.24627
H         -2.12181        0.88101       -1.79597
H         -3.87212       -1.57344       -1.10817
H         -4.18692       -0.45279       -2.44282
H         -1.41389        2.30654        0.30754
H          0.58133        3.73768        0.39551
H          2.59873        4.70734       -0.48405
H          2.71649        4.41440        1.30198
H          4.21016        4.44810        0.28837
H          1.06124       -1.16882       -0.39153
H          3.00718       -1.47404       -1.38886
H          3.34931       -1.26320        1.58248
H          2.62419       -2.61340        0.69881
H          5.08833       -2.84204        1.95231
H          4.69130       -3.76807        0.50097
H          6.48762       -1.34475        0.77068
H          6.59408       -2.67479       -0.38890
H          5.52612       -0.06844       -0.92830
H          5.30596       -1.48481       -1.96677
