66
omegapdb_1z1r_22.log	Energy:    -261.9500888
C          0.25966        0.38312        1.12482
C          0.57230       -1.04733        0.61781
C         -0.67117       -1.77763        0.19956
C         -1.68893       -2.03055        1.13558
C         -2.92959       -2.50820        0.71698
C         -3.12573       -2.75168       -0.64907
C         -2.08946       -2.61778       -1.58419
C         -0.85868       -2.12880       -1.14742
O         -4.35951       -3.14575       -1.16360
C         -5.46981       -2.27794       -0.80373
C         -5.25785       -0.88496       -1.40648
C         -6.07736        0.19853       -0.70867
C         -5.76173        0.32724        0.76794
O         -6.54163       -0.03148        1.63661
N         -4.57139        0.93369        1.18882
C         -3.42384        1.28786        0.33944
C         -2.13799        1.03308        1.17209
O         -2.17709        0.95259        2.39255
N         -0.95083        0.94126        0.46391
C         -3.48936        2.77225       -0.07877
C         -2.69325        3.00717       -1.34355
O         -2.13715        2.11814       -1.97301
N         -2.63286        4.31883       -1.79981
C          1.43420        1.36777        0.86908
O          1.84591        1.37922       -0.48998
C          2.64957        1.07719        1.80019
N          3.93677        1.04026        1.06635
S          4.33536       -0.50819        0.41471
O          3.42952       -0.74131       -0.71735
O          4.28977       -1.45443        1.50605
C          5.93576       -0.27881       -0.17150
C          7.00616       -0.19969        0.72622
C          8.30673       -0.02135        0.24531
C          8.53403        0.07168       -1.13210
C          7.46410       -0.01438       -2.03081
C          6.16460       -0.19174       -1.55008
H          0.05732        0.34072        2.23438
H          1.30221       -1.00545       -0.23076
H          1.10293       -1.61649        1.41026
H         -1.52385       -1.81420        2.19252
H         -3.73127       -2.67946        1.43216
H         -2.26370       -2.87380       -2.62673
H         -0.04856       -1.99359       -1.86485
H         -6.31820       -2.82043       -1.25939
H         -5.58840       -2.26182        0.29396
H         -4.17368       -0.61728       -1.37141
H         -5.50533       -0.90392       -2.48746
H         -5.93985        1.17039       -1.22319
H         -7.16435       -0.03175       -0.79834
H         -4.40513        0.99233        2.20864
H         -3.40629        0.63238       -0.58712
H         -0.92876        0.99399       -0.56429
H         -4.55028        3.06901       -0.23245
H         -3.13555        3.42167        0.75021
H         -3.02797        5.09911       -1.30856
H         -2.09362        4.53350       -2.62725
H          1.08953        2.42142        1.01428
H          1.99447        0.44102       -0.84651
H          2.72113        1.88397        2.56780
H          2.51708        0.13828        2.38668
H          3.97768        1.83470        0.40181
H          6.83165       -0.28167        1.80436
H          9.14140        0.04096        0.94289
H          9.54955        0.20933       -1.50766
H          7.64415        0.05291       -3.10331
H          5.32554       -0.26930       -2.25294
