44
omegacsd_CUHNEY10_01.log	Energy:     -28.3230256
Cl         4.34467        2.82256       -0.66432
C          2.69943        2.39471       -0.46988
C          2.19025        1.26846       -1.13679
N          0.90003        0.88232       -1.00042
C          0.07598        1.63431       -0.19779
N         -1.27269        1.19028       -0.12544
C         -2.30913        1.78798        0.68697
O         -2.15982        2.75379        1.38125
C         -3.52874        0.95342        0.40298
N         -4.76920        1.14382        0.87298
C         -5.69783        0.24011        0.43720
C         -5.37283       -0.80718       -0.45089
N         -4.10269       -0.99677       -0.92499
C         -3.19268       -0.11750       -0.48528
C         -1.70660       -0.07904       -0.81406
O         -1.08627       -1.15260       -0.09142
C         -0.26472       -2.02401       -0.84728
O         -0.29491       -2.02429       -2.05487
N          0.37875       -2.92514        0.01534
C          0.53722       -2.56010        1.45332
C          1.77663       -1.67241        1.68139
N          2.99619       -2.37608        1.16064
C          2.85482       -2.66057       -0.30656
C          1.61854       -3.55099       -0.53966
C          4.21456       -1.55022        1.41125
C          0.53042        2.78319        0.49352
C          1.86174        3.16092        0.35012
H          2.81597        0.65540       -1.79978
H         -6.71836        0.37875        0.81698
H         -6.12829       -1.52180       -0.80395
H         -1.43822       -0.09806       -1.90186
H         -0.38246       -2.04882        1.81621
H          0.63496       -3.51557        2.02003
H          1.61601       -0.67257        1.22245
H          1.91504       -1.51038        2.77258
H          2.78150       -1.74114       -0.92744
H          3.76535       -3.20553       -0.63884
H          1.48158       -3.75560       -1.62557
H          1.74147       -4.53259       -0.02567
H          4.21688       -0.56149        0.92884
H          4.33109       -1.40539        2.49796
H          5.10226       -2.10645        1.06827
H         -0.14925        3.36491        1.12697
H          2.24823        4.04200        0.86840
