66
omegapdb_1z1r_19.log	Energy:    -255.5212541
C          0.25523        0.44083       -0.09327
C          0.67412       -0.97480       -0.52884
C         -0.44717       -1.95676       -0.35949
C         -1.16128       -2.41145       -1.47934
C         -2.31546       -3.18042       -1.31984
C         -2.73261       -3.49944       -0.02113
C         -1.98212       -3.13637        1.10892
C         -0.83500       -2.36778        0.92897
O         -3.89103       -4.22957        0.21789
C         -5.11988       -3.62737       -0.27995
C         -5.47432       -2.37753        0.52165
C         -4.88870       -1.08672       -0.06618
C         -5.03846        0.04761        0.92234
O         -5.72495        0.00815        1.92644
N         -4.33655        1.24995        0.69237
C         -3.45341        1.56215       -0.43514
C         -1.98603        1.55292        0.08664
O         -1.60203        2.21585        1.03868
N         -1.09801        0.76957       -0.64474
C         -3.76620        2.91602       -1.09241
C         -4.23325        4.05716       -0.19646
O         -5.22950        4.70674       -0.46857
N         -3.46104        4.37908        0.90733
C          1.25059        1.53795       -0.56744
O          1.61801        1.33687       -1.94227
C          2.58634        1.53937        0.22343
N          3.78473        1.23984       -0.59097
S          4.42028       -0.36389       -0.51509
O          3.56831       -1.11092        0.40485
O          4.58935       -0.81464       -1.87965
C          5.97007       -0.13823        0.21306
C          6.10596       -0.21604        1.60285
C          7.36012       -0.03131        2.19202
C          8.47610        0.22801        1.38846
C          8.34141        0.29801       -0.00256
C          7.08674        0.11290       -0.59081
H          0.19391        0.48883        1.03133
H          1.56909       -1.29708        0.07172
H          1.05980       -0.96198       -1.57105
H         -0.81371       -2.16917       -2.48301
H         -2.87288       -3.53850       -2.18082
H         -2.31082       -3.45062        2.09837
H         -0.24227       -2.06848        1.79429
H         -5.03538       -3.44854       -1.36280
H         -5.83276       -4.45488       -0.09121
H         -6.57608       -2.27854        0.61403
H         -5.11787       -2.50708        1.57048
H         -3.81826       -1.24248       -0.31870
H         -5.40598       -0.82970       -1.01320
H         -4.43390        1.97795        1.41061
H         -3.57348        0.77597       -1.23176
H         -1.43218        0.15728       -1.38771
H         -2.89332        3.26988       -1.68129
H         -4.58127        2.76628       -1.84236
H         -2.64363        3.84657        1.20080
H         -3.75110        5.13517        1.51103
H          0.76343        2.53910       -0.48301
H          0.84415        1.47328       -2.52315
H          2.73626        2.56055        0.65382
H          2.52057        0.84551        1.09590
H          3.68281        1.63689       -1.54518
H          5.23511       -0.43320        2.23048
H          7.46813       -0.09234        3.27407
H          9.45495        0.37298        1.84793
H          9.21215        0.49337       -0.62706
H          6.98430        0.15388       -1.68075
