57
omegacsd_SPIRIL_00.log	Energy:     -33.8537612
C          2.41865        0.67231       -1.82681
C          3.10493        0.59928       -0.44758
C          2.77799        1.88463        0.37442
O          1.73860        2.21496        0.90476
N          3.93991        2.66074        0.42586
C          5.04667        2.06910       -0.37311
N          4.60220        0.66754       -0.69370
C          5.39936       -0.37031       -0.05759
C          5.84450       -0.30354        1.27382
C          6.64615       -1.32824        1.78191
C          6.99655       -2.41710        0.97719
C          6.54276       -2.48340       -0.34455
C          5.74456       -1.46498       -0.86926
C          2.64531       -0.65648        0.30820
C          1.11099       -0.72003        0.39221
N          0.53525       -0.70172       -0.99184
C         -0.93612       -0.94704       -0.98826
C         -1.79818        0.09534       -0.25049
C         -3.25340       -0.24610       -0.28648
C         -4.20476        0.48079        0.32308
C         -5.62933        0.07512        0.24485
C         -6.28841        0.05538       -0.99549
C         -7.63085       -0.32165       -1.07979
C         -8.28560       -0.67732        0.10241
C         -7.66201       -0.67066        1.35369
C         -6.32088       -0.28681        1.41342
F         -9.56889       -1.04093        0.03398
C         -3.92318        1.71966        1.11205
C          0.89125        0.57540       -1.69163
H          2.79563       -0.16506       -2.45212
H          2.69817        1.59900       -2.35972
H          4.01566        3.56166        0.87101
H          5.15954        2.60535       -1.34796
H          6.01379        2.11555        0.17238
H          5.56293        0.53327        1.91001
H          6.99570       -1.27954        2.81267
H          7.62036       -3.21312        1.37898
H          6.81416       -3.33316       -0.97045
H          5.39132       -1.50789       -1.89976
H          3.07539       -0.69232        1.32652
H          3.01834       -1.55910       -0.22312
H          0.80792       -1.66907        0.88313
H          0.73725        0.11778        1.02760
H         -1.10060       -1.95492       -0.54510
H         -1.26017       -1.02294       -2.05026
H         -1.45867        0.19042        0.80365
H         -1.63824        1.10243       -0.69203
H         -3.51790       -1.14524       -0.84457
H         -5.74836        0.33999       -1.89879
H         -8.14648       -0.33648       -2.03821
H         -8.20134       -0.95547        2.25517
H         -5.80389       -0.27111        2.37310
H         -4.83843        2.23011        1.43826
H         -3.34300        2.44474        0.52282
H         -3.33404        1.49213        2.01206
H          0.43081        0.55805       -2.70239
H          0.50210        1.47775       -1.16612
