25
omegapdb_1m5f_20.log	Energy:    -158.2918859
O         -1.85131       -2.66818        0.37424
C         -1.29113       -1.81802       -0.53388
O         -0.66047       -2.22654       -1.48011
C         -1.53920       -0.40556       -0.16648
N         -2.66034        0.07306        0.38896
O         -2.52061        1.42876        0.54083
C         -1.24777        1.80635        0.05338
C         -0.59500        0.68042       -0.40043
C          0.73321        0.56835       -1.04212
C          1.89324        0.74926       -0.03951
N          3.08172        1.26017       -0.76046
C          2.18731       -0.58248        0.67797
O          3.18158       -1.24720        0.54833
O          1.24677       -1.03141        1.57413
C         -0.94228        3.23352        0.14231
H         -1.67362       -3.63014        0.15358
H          0.82734        1.34218       -1.84406
H          0.82444       -0.40364       -1.58631
H          1.61396        1.51630        0.73431
H          3.38616        0.60346       -1.47893
H          3.86750        1.38281       -0.12333
H          0.42826       -0.48622        1.64235
H         -1.70263        3.84760       -0.37443
H         -0.91265        3.58788        1.18751
H          0.03368        3.47267       -0.31704
