46
omegacsd_CDBMPI10_09.log	Energy:     -39.3579450
O         -3.22868        2.23895        0.38000
C         -2.70852        1.14362        0.23627
N         -1.31567        1.01950        0.26499
C         -0.58058       -0.26239        0.08828
C          0.56080       -0.06833       -0.95509
N          1.41313        1.11471       -0.65792
C          0.57898        2.36578       -0.60912
C         -0.48554        2.23094        0.50906
C          1.40547        3.63232       -0.43291
C          2.54379        0.94666        0.18005
O          2.94579        1.82775        0.91870
C          3.29354       -0.34732        0.02294
C          3.83165       -0.70890       -1.21887
C          4.57090       -1.88947       -1.33427
C          4.77130       -2.70363       -0.21425
C          4.23974       -2.33478        1.02602
C          3.50469       -1.15217        1.14956
C         -0.04446       -0.76948        1.42941
C         -3.50037       -0.11270        0.01996
C         -3.95123       -0.43123       -1.26683
C         -4.72930       -1.57642       -1.46020
C         -5.05798       -2.39301       -0.37281
C         -4.61258       -2.06482        0.91212
C         -3.83283       -0.92200        1.11305
H         -1.28817       -1.03051       -0.32957
H          1.17296       -0.99403       -1.01281
H          0.11877        0.07554       -1.96769
H          0.05811        2.41644       -1.60665
H         -0.00200        2.16127        1.50803
H         -1.14350        3.13309        0.53285
H          1.88171        3.68747        0.56092
H          0.78920        4.52861       -0.56083
H          2.22562        3.68194       -1.16070
H          3.67814       -0.06746       -2.08747
H          4.99528       -2.17233       -2.29647
H          5.34802       -3.62322       -0.30683
H          4.40631       -2.96383        1.89927
H          3.11047       -0.84790        2.11964
H          0.50373       -1.71093        1.31135
H         -0.86050       -0.94757        2.14064
H          0.63522       -0.04897        1.90288
H         -3.70720        0.21668       -2.10857
H         -5.08569       -1.82810       -2.45812
H         -5.66728       -3.28300       -0.52606
H         -4.87815       -2.69629        1.75879
H         -3.49487       -0.65577        2.11433
