44
omegacsd_CUHNEY10_12.log	Energy:     -27.4555668
Cl        -5.84620        1.47177       -0.11756
C         -4.40089        0.55746       -0.06002
C         -3.31261        0.92512       -0.87158
N         -2.15113        0.23256       -0.85650
C         -2.05132       -0.85283       -0.02071
N         -0.80373       -1.53864       -0.07519
C         -0.47714       -2.74362        0.64762
O         -1.21728       -3.31778        1.39581
C          0.92525       -3.07178        0.20342
N          1.65809       -4.13847        0.54797
C          2.90288       -4.19266       -0.01662
C          3.37510       -3.19868       -0.89852
N          2.62178       -2.10779       -1.24292
C          1.40453       -2.05742       -0.68651
C          0.34809       -0.97376       -0.86028
O          0.82005        0.17066       -0.12758
C          0.84839        1.40213       -0.82074
O          0.74484        1.44802       -2.02352
N          0.93402        2.46725        0.08757
C          1.25168        2.19658        1.52117
C          2.64894        2.72527        1.92528
N          3.64945        2.78602        0.82404
C          3.14601        3.61965       -0.31160
C          1.60726        3.68490       -0.45048
C          4.06795        1.42216        0.38431
C         -3.10952       -1.27333        0.81636
C         -4.29988       -0.55011        0.78883
H         -3.35946        1.78788       -1.55094
H          3.51627       -5.06113        0.25654
H          4.37343       -3.25474       -1.35190
H          0.07323       -0.70548       -1.91319
H          1.16411        1.10844        1.74003
H          0.46115        2.70261        2.12120
H          2.55947        3.75638        2.33637
H          3.06186        2.10154        2.74683
H          3.59898        3.27806       -1.26643
H          3.54001        4.64716       -0.13436
H          1.31496        3.82600       -1.51679
H          1.19663        4.55321        0.11215
H          4.81994        1.51369       -0.41589
H          3.25860        0.77018        0.02102
H          4.56001        0.91678        1.23110
H         -3.00096       -2.14559        1.46972
H         -5.14132       -0.84340        1.42096
