25
omegapdb_1m5f_09.log	Energy:    -160.3413802
O         -2.38409       -2.84786       -0.13330
C         -1.35500       -1.97494        0.08419
O         -0.26645       -2.43902        0.31504
C         -1.67779       -0.52506        0.00818
N         -2.87813       -0.00517        0.31028
O         -2.80728        1.35574        0.18013
C         -1.49351        1.69309       -0.22494
C         -0.75411        0.53512       -0.35311
C          0.65810        0.39354       -0.77308
C          1.57770        0.04081        0.41592
N          1.59761        1.18072        1.37841
C          3.01699       -0.19111       -0.03187
O          4.01264       -0.23408        0.64973
O          3.09844       -0.41073       -1.38529
C         -1.23839        3.12289       -0.38913
H         -3.27774       -2.43162       -0.26896
H          0.75628       -0.39911       -1.55243
H          1.01966        1.33080       -1.25369
H          1.22304       -0.93625        0.86930
H          2.34165        1.06038        2.06782
H          0.71630        1.22367        1.88379
H          4.03035       -0.59905       -1.68487
H         -1.18324        3.40860       -1.45434
H         -2.02091        3.74745        0.07370
H         -0.27167        3.40801        0.07138
