57
omegacsd_SPIRIL_22.log	Energy:     -33.3456256
C         -2.17851       -1.79131       -0.94866
C         -3.17584       -1.01084       -0.06668
C         -4.31036       -2.00199        0.36255
O         -4.25704       -2.89531        1.17909
N         -5.45350       -1.67968       -0.36963
C         -5.20232       -0.57785       -1.33839
N         -3.87187        0.01159       -0.94384
C         -3.98809        1.36445       -0.41713
C         -4.90266        1.73049        0.58616
C         -4.97515        3.06324        0.99639
C         -4.14490        4.02770        0.41531
C         -3.23838        3.65879       -0.58381
C         -3.15564        2.33012       -1.00718
C         -2.49831       -0.47681        1.20264
C         -1.16535        0.23625        0.91472
N         -0.21054       -0.53849        0.07091
C          0.42415       -1.66433        0.83117
C          1.67277       -2.18603        0.09473
C          2.77412       -1.17399        0.05179
C          4.08394       -1.45951        0.11608
C          5.09357       -0.37493        0.04159
C          5.09772        0.64806        1.00514
C          6.04525        1.67274        0.94993
C          6.97809        1.64519       -0.09022
C          7.00402        0.64598       -1.06730
C          6.04852       -0.36948       -0.98932
F          7.88891        2.62028       -0.15388
C          4.64244       -2.84138        0.25337
C         -0.88593       -0.98957       -1.17933
H         -2.63777       -2.03921       -1.92446
H         -1.94520       -2.75901       -0.45981
H         -6.33510       -2.16474       -0.31577
H         -6.03057        0.16343       -1.33471
H         -5.08711       -0.98287       -2.37371
H         -5.54784        0.98269        1.04392
H         -5.68126        3.35167        1.77440
H         -4.20489        5.06477        0.74000
H         -2.59337        4.41083       -1.03781
H         -2.45574        2.03724       -1.79067
H         -2.32111       -1.33755        1.88600
H         -3.16988        0.20106        1.76294
H         -1.35512        1.19763        0.38393
H         -0.67020        0.50572        1.87177
H         -0.27474       -2.50914        1.01457
H          0.72655       -1.28073        1.83077
H          2.00761       -3.12426        0.58542
H          1.41085       -2.46970       -0.94878
H          2.42648       -0.14157       -0.06134
H          4.35496        0.64004        1.80339
H          6.05241        2.46589        1.69504
H          7.74311        0.65593       -1.86597
H          6.04048       -1.16208       -1.73717
H          3.95750       -3.50815        0.79595
H          5.59632       -2.84442        0.79796
H          4.82474       -3.29066       -0.73237
H         -0.16782       -1.58993       -1.77859
H         -1.11457       -0.07677       -1.77609
