61
omegapdb_1v2k_09.log	Energy:     -54.3763746
N          8.69810        1.67934       -1.36421
C          8.44390        0.35474       -1.18755
C          7.43674       -0.13009       -0.34779
C          6.63684        0.78993        0.37066
C          6.89299        2.16916        0.18495
C          7.92157        2.56040       -0.67679
N          5.70579        0.34231        1.34656
C          5.16500       -1.04215        1.20706
C          3.98687       -1.11551        0.22112
C          2.87019       -0.14315        0.64248
C          3.42767        1.28103        0.81329
C          4.62886        1.28714        1.76989
C          1.78711       -0.13013       -0.43871
O          1.78293        0.65449       -1.37665
N          0.74820       -1.05985       -0.33750
C          0.64579       -2.11189        0.70390
C         -0.83109       -2.44527        0.99514
N         -1.52868       -2.92577       -0.22681
C         -0.92474       -2.48240       -1.50761
C         -0.29381       -1.08385       -1.40403
S         -3.24111       -3.09415       -0.14146
O         -3.51239       -3.90891        1.02142
O         -3.66137       -3.48735       -1.47059
C         -3.83858       -1.48928        0.16540
C         -4.07312       -0.61921       -0.87060
C         -4.55665        0.70016       -0.61265
C         -4.80603        1.09369        0.73086
C         -4.57614        0.15680        1.78739
C         -4.10930       -1.10327        1.50773
C         -5.28708        2.41556        0.99449
C         -5.49828        3.26883       -0.05783
C         -5.25877        2.89274       -1.41121
C         -4.79729        1.62934       -1.67715
Cl        -6.07653        4.86507        0.23900
H          9.08345       -0.33330       -1.75355
H          7.28610       -1.20109       -0.24525
H          6.30800        2.92144        0.70742
H          8.14664        3.62155       -0.83876
H          4.85004       -1.37475        2.22170
H          5.97784       -1.73518        0.89150
H          3.60421       -2.15018        0.16128
H          4.33920       -0.85941       -0.80148
H          2.43765       -0.47830        1.61928
H          2.63866        1.96238        1.18208
H          3.72141        1.68491       -0.18182
H          5.04522        2.31623        1.86125
H          4.31731        0.98748        2.79589
H          1.18069       -3.02978        0.36294
H          1.14250       -1.76650        1.64051
H         -0.88516       -3.26336        1.75503
H         -1.33012       -1.54795        1.43003
H         -1.67720       -2.51410       -2.33022
H         -0.14638       -3.23425       -1.78804
H         -1.06019       -0.31058       -1.17163
H          0.17053       -0.78463       -2.37550
H         -3.90640       -0.92085       -1.91158
H         -4.78829        0.46002        2.81264
H         -3.95728       -1.83379        2.31127
H         -5.47895        2.72078        2.02348
H         -5.44656        3.61344       -2.20843
H         -4.60720        1.31172       -2.70408
