24
omegapdb_1gs5_09.log	Energy:    -237.2544208
C          1.01228       -0.57043       -0.44882
C          2.26485       -0.26732        0.36911
O          2.36868        0.07552        1.52069
O          3.37091       -0.42695       -0.42377
C          0.61557        0.66528       -1.28642
C          0.17461        1.87360       -0.46941
C         -1.21068        1.76855        0.12196
O         -1.56606        2.23397        1.17481
O         -2.17520        1.11197       -0.60877
N         -0.04659       -1.01531        0.48000
C         -1.21067       -1.61469       -0.03861
O         -1.31499       -1.76633       -1.24612
C         -2.23802       -1.99758        0.97466
H          1.23439       -1.41831       -1.16884
H          4.22469       -0.23915        0.05805
H          1.47344        0.94378       -1.93678
H         -0.19620        0.35201       -1.98761
H          0.21325        2.79395       -1.09621
H          0.89195        2.07496        0.36201
H         -1.84935        0.63449       -1.42144
H          0.02763       -0.71479        1.45381
H         -2.95692       -2.71251        0.53880
H         -2.82712       -1.11662        1.28907
H         -1.82397       -2.46054        1.87963
