39
omegacsd_GALSEM_05.log	Energy:    -242.2799955
S          2.28143       -1.05699       -1.15369
O          1.09941       -1.92660       -1.03509
O          3.16728       -1.24194       -2.26715
N          3.13390       -1.50769        0.30187
C          4.28294       -0.82138        0.75407
O          4.61488        0.18146        0.15037
C          4.99552       -1.41352        1.94810
C          5.78806       -0.34497        2.69100
C          1.80420        0.55289       -0.96663
C          0.51820        0.96032       -0.52723
N         -0.43883        0.01520       -0.19420
C         -1.71277        0.31582        0.39695
C         -2.85692       -0.29417       -0.15282
C         -4.09825       -0.06579        0.44584
C         -4.21032        0.76002        1.57384
C         -3.06514        1.35543        2.11107
C         -1.81331        1.13574        1.53486
C         -5.35186       -0.69727       -0.10724
F         -5.20180       -1.48534       -1.18280
F         -6.28321        0.19213       -0.49346
F         -5.99928       -1.48138        0.77224
C          0.23963        2.35839       -0.45478
C          1.22794        3.26344       -0.80127
N          2.48324        2.87998       -1.21479
C          2.74835        1.56708       -1.29081
H          2.82542       -2.35403        0.79847
H          5.68166       -2.21183        1.58340
H          4.29143       -1.91582        2.64172
H          5.12976        0.38482        3.17863
H          6.42978       -0.78683        3.46158
H          6.43309        0.22291        2.00163
H         -0.28221       -1.00272       -0.44603
H         -2.75872       -0.93202       -1.03522
H         -5.18208        0.94032        2.03804
H         -3.15024        1.99279        2.99325
H         -0.92037        1.58723        1.97062
H         -0.74775        2.71157       -0.16770
H          1.05661        4.34794       -0.76755
H          3.77113        1.29073       -1.62035
