36
omegapdb_1qxw_25.log	Energy:    -103.4784739
C          4.51036       -1.24465        0.65136
C          4.38913       -0.78430       -0.78714
C          3.75968        0.04197        0.32997
N          2.29216       -0.01472        0.45335
C          1.63800        1.09283       -0.30219
C          0.10475        1.00740       -0.12274
C         -0.61376       -0.16449       -0.87069
N         -0.14119       -1.50457       -0.45923
C         -2.14945       -0.05698       -0.76159
C         -2.75159       -0.50180        0.57564
C         -4.24158       -0.14755        0.69012
C         -5.12429       -1.01169       -0.20684
O         -0.10749        1.04902        1.28204
O         -0.48510        2.19819       -0.65021
H          5.46834       -1.18900        1.16122
H          3.95097       -2.12256        0.97310
H          5.26030       -0.40040       -1.31009
H          3.74135       -1.33928       -1.46488
H          4.22875        1.00136        0.59149
H          2.02221        0.04636        1.44765
H          1.98234        2.10477        0.00465
H          1.88778        0.99047       -1.38228
H         -0.35346       -0.03481       -1.96038
H          0.85711       -1.60974       -0.65588
H         -0.24887       -1.63728        0.54283
H         -2.44003        0.99245       -0.98437
H         -2.59079       -0.67539       -1.57158
H         -2.20259       -0.03066        1.42380
H         -2.61637       -1.59579        0.69983
H         -4.39655        0.92238        0.44716
H         -4.56208       -0.26618        1.74459
H         -6.18368       -0.76328       -0.07987
H         -4.87890       -0.87499       -1.26664
H         -5.00553       -2.07836        0.01695
H         -1.06163        0.86267        1.51181
H         -0.30229        2.97026       -0.07787
