41
omegacsd_CEJTIU_01.log	Energy:     -45.1469314
C         -6.96603        0.79422       -0.33807
N         -6.06368       -0.37479       -0.54543
C         -6.65875       -1.61610        0.02602
C         -4.68223       -0.14818       -0.24133
C         -4.11500        1.13462       -0.42884
C         -2.74914        1.34010       -0.27272
C         -1.91115        0.26361        0.08055
C         -2.45771       -1.01541        0.26905
C         -3.82663       -1.21495        0.11232
N         -0.51023        0.54952        0.22837
C          0.43985       -0.38886        0.60782
O          0.25260       -1.56517        0.86787
N          1.81400        0.07655        0.71631
C          2.30548        1.37292        0.47391
O          1.55854        2.27646        0.13436
C          3.78863        1.57838        0.70127
C          4.64678        0.49444        0.11458
C          5.32490       -0.40208        0.95271
C          6.12326       -1.40620        0.39672
C          6.24550       -1.52089       -0.99126
C          5.56794       -0.62629       -1.82680
C          4.76999        0.38072       -1.27870
H         -6.62301        1.63868       -0.96142
H         -7.98106        0.53719       -0.68217
H         -7.02597        1.13258        0.70764
H         -7.69596       -1.72185       -0.33152
H         -6.66382       -1.64674        1.12640
H         -6.10304       -2.49369       -0.34899
H         -4.74488        1.97636       -0.71397
H         -2.33599        2.33664       -0.42631
H         -1.81438       -1.86037        0.54113
H         -4.22355       -2.21859        0.25755
H         -0.21188        1.52701        0.03172
H          2.47507       -0.67725        0.96630
H          4.07372        2.56710        0.26475
H          3.97081        1.69959        1.79307
H          5.23882       -0.31890        2.03440
H          6.65049       -2.10172        1.04905
H          6.86600       -2.30527       -1.42157
H          5.66121       -0.71503       -2.90894
H          4.24346        1.07451       -1.93311
