39
omegacsd_GALSEM_13.log	Energy:    -241.3693454
S         -2.75061        0.45161        0.57688
O         -2.21246       -0.55352        1.49962
O         -3.98759        1.10244        0.93382
N         -3.02794       -0.36968       -0.91169
C         -4.02060       -1.37514       -1.14131
O         -4.06913       -1.85382       -2.25333
C         -4.89204       -1.72352        0.03696
C         -5.92553       -2.77702       -0.34060
C         -1.53197        1.55328        0.16936
C         -0.14734        1.31539        0.36936
N          0.27764        0.12992        0.93805
C          1.65423       -0.26368        1.07923
C          2.52458       -0.25437       -0.02377
C          3.84128       -0.69219        0.15146
C          4.28459       -1.15077        1.39918
C          3.40110       -1.16953        2.48432
C          2.08720       -0.72657        2.33635
C          4.81490       -0.68916       -1.00079
F          5.92414        0.03545       -0.77214
F          5.28293       -1.90661       -1.32261
F          4.35804       -0.20519       -2.16658
C          0.77441        2.33496       -0.02559
C          0.29196        3.50742       -0.57503
N         -1.05457        3.75385       -0.75430
C         -1.92092        2.80556       -0.37810
H         -2.44929       -0.16320       -1.74342
H         -4.26660       -2.09145        0.88399
H         -5.40608       -0.80919        0.42341
H         -6.55603       -3.03758        0.51722
H         -6.58271       -2.42495       -1.14777
H         -5.44860       -3.69806       -0.70309
H         -0.42626       -0.51864        1.39337
H          2.16129        0.07880       -0.99885
H          5.31197       -1.49687        1.53370
H          3.74490       -1.53168        3.45565
H          1.40252       -0.73921        3.18711
H          1.84335        2.20526        0.13387
H          0.96084        4.31885       -0.89457
H         -2.99300        3.04192       -0.51039
