34
omegapdb_2f7p_18.log	Energy:    -114.4128792
C         -1.00575        0.28422       -0.95365
N          0.46872        0.28542       -0.90410
C          1.08894       -0.43538        0.25193
C          2.58831       -0.27017        0.18167
C          3.15804        1.01124        0.14109
C          4.54659        1.15802        0.09744
C          5.37306        0.02931        0.09667
C          4.80644       -1.24838        0.13543
C          3.41738       -1.40107        0.17522
C         -1.76380       -1.07873       -1.05590
O         -1.27782       -2.08698       -0.16823
C         -3.20625       -0.72535       -0.59760
O         -3.87370       -1.84660       -0.03211
C         -2.99525        0.33113        0.53385
O         -2.82186       -0.38116        1.77277
C         -1.63099        0.98728        0.27393
S         -1.88200        2.75120       -0.06906
H         -1.26952        0.85525       -1.89304
H          0.84774       -0.09763       -1.78016
H          0.81075       -1.51572        0.28106
H          0.70997        0.01736        1.19989
H          2.51106        1.88807        0.13453
H          4.98591        2.15362        0.06484
H          6.45439        0.14560        0.06554
H          5.44778       -2.12812        0.13369
H          2.98503       -2.39953        0.20201
H         -1.69436       -1.55810       -2.04972
H         -1.29680       -1.74326        0.77216
H         -3.86555       -0.36390       -1.40987
H         -3.22105       -2.58892        0.12721
H         -3.84849        1.02822        0.64543
H         -3.60064       -0.98450        1.90847
H         -0.98740        0.87413        1.18573
H         -0.61116        3.06567       -0.41397
