57
omegacsd_SPIRIL_23.log	Energy:     -31.5345487
C          2.32973       -1.90198       -0.86630
C          3.33913       -0.93624       -0.20616
C          4.78623       -1.49439       -0.39737
O          5.31101       -2.43474        0.15558
N          5.43248       -0.68953       -1.33940
C          4.53088        0.34914       -1.90432
N          3.30882        0.34285       -1.02402
C          3.09713        1.58463       -0.29848
C          4.11893        2.27944        0.37237
C          3.82637        3.49017        1.00369
C          2.52700        4.00751        0.97410
C          1.51366        3.31231        0.30609
C          1.79069        2.10228       -0.33378
C          3.07910       -0.78610        1.30085
C          1.58618       -0.85750        1.64095
N          0.99411       -2.18936        1.28405
C         -0.47814       -2.10095        1.06945
C         -0.94706       -1.23672       -0.11916
C         -2.43591       -1.09734       -0.12526
C         -3.10370        0.06583       -0.15611
C         -4.58908        0.07873       -0.17381
C         -5.30547       -0.28740        0.97753
C         -6.70206       -0.27230        0.97783
C         -7.35217        0.11379       -0.19779
C         -6.67183        0.48180       -1.36217
C         -5.27550        0.46140       -1.33772
F         -8.68729        0.13174       -0.20945
C         -2.46943        1.42024       -0.17650
C          1.72490       -2.86178        0.16985
H          1.52671       -1.31197       -1.35539
H          2.80890       -2.47398       -1.68188
H          6.36923       -0.83611       -1.68155
H          5.03524        1.33820       -1.95873
H          4.19203        0.06208       -2.93066
H          5.12967        1.87651        0.40787
H          4.61525        4.03206        1.52488
H          2.30505        4.95073        1.46970
H          0.50297        3.71844        0.28033
H          1.01045        1.56307       -0.87018
H          3.51381        0.14657        1.70556
H          3.61218       -1.60879        1.83656
H          1.05356       -0.00870        1.15503
H          1.44732       -0.74350        2.74018
H         -0.92484       -1.71150        2.01231
H         -0.86041       -3.13963        0.95790
H         -0.61851       -1.69265       -1.07627
H         -0.44678       -0.24385       -0.07682
H         -2.97855       -2.04547       -0.11236
H         -4.76657       -0.58435        1.87767
H         -7.26265       -0.55393        1.86753
H         -7.20967        0.77476       -2.26206
H         -4.71501        0.73995       -2.22996
H         -2.92091        2.08112        0.57705
H         -1.38987        1.37706        0.02877
H         -2.60186        1.90320       -1.15448
H          1.06477       -3.59747       -0.33346
H          2.54075       -3.45465        0.65170
