36
omegapdb_1qxw_16.log	Energy:    -106.8924467
C         -3.67404       -2.21605        0.46232
C         -4.25556       -1.12450       -0.41477
C         -2.75220       -1.40721       -0.43783
N         -1.77555       -0.50826        0.18091
C         -1.47917        0.66697       -0.69110
C         -0.41409        1.55222       -0.00914
C          0.99595        0.96094        0.28751
N          0.92786        0.29481        1.61678
C          1.48359        0.06566       -0.86609
C          2.99302       -0.20075       -0.82919
C          3.39159       -1.31767        0.14547
C          4.88796       -1.61407        0.08127
O         -0.16761        2.66523       -0.88013
O         -1.04284        2.12430        1.13185
H         -3.64562       -2.07830        1.54113
H         -3.86575       -3.25979        0.22349
H         -4.63078       -0.21437        0.04554
H         -4.86557       -1.39088       -1.27312
H         -2.32857       -1.89255       -1.33044
H         -2.11103       -0.16460        1.09412
H         -1.09925        0.31877       -1.67593
H         -2.37495        1.29273       -0.90500
H          1.69652        1.83854        0.38482
H          1.85666       -0.04304        1.88000
H          0.32147       -0.52718        1.57295
H          1.23664        0.56642       -1.82697
H          0.92014       -0.88883       -0.87177
H          3.33178       -0.47129       -1.85009
H          3.53939        0.72986       -0.57951
H          3.11486       -1.03437        1.18220
H          2.81766       -2.23783       -0.08112
H          5.16605       -2.40626        0.78563
H          5.19218       -1.94488       -0.91858
H          5.48721       -0.73028        0.32874
H         -0.73787        3.42592       -0.63154
H         -0.46606        2.09684        1.93720
