50
omegapdb_1xom_20.log	Energy:    -136.6800754
O          6.77811       -0.78969       -0.96570
C          5.94353       -0.00548       -0.18729
O          6.41408        0.39644        0.84333
C          4.55970        0.26380       -0.76314
C          3.82176       -1.06684       -1.01572
C          2.30502       -0.87067       -0.97778
C          1.81094       -0.43826        0.43383
C          2.89586        0.40177        1.16068
C          3.76344        1.19074        0.17847
C          1.59099       -1.65038        1.25211
N          1.43397       -2.59935        1.89024
C          0.47370        0.28210        0.26277
C          0.34526        1.66140        0.41887
C         -0.89238        2.29422        0.22429
C         -2.01028        1.54851       -0.13894
O         -3.27020        2.06900       -0.37088
C         -3.47621        3.47427       -0.08568
C         -1.89242        0.13592       -0.30739
C         -0.65357       -0.47796       -0.10062
O         -2.86185       -0.73574       -0.72163
C         -4.28160       -0.37045       -0.61466
C         -4.98019       -1.57452       -1.26685
C         -5.92512       -2.16971       -0.20878
C         -5.98303       -1.16620        0.95986
C         -4.71505       -0.30514        0.85671
H          6.39082       -1.12990       -1.79897
H          4.69550        0.79884       -1.73773
H          4.11707       -1.49006       -1.99428
H          4.11330       -1.82195       -0.25473
H          2.00332       -0.10158       -1.71814
H          1.79055       -1.79945       -1.29342
H          2.42826        1.08022        1.90024
H          3.55202       -0.26257        1.76453
H          4.46135        1.84387        0.74631
H          3.13217        1.86942       -0.42825
H          1.19979        2.27614        0.69782
H         -0.95873        3.37129        0.35603
H         -2.86603        4.08956       -0.75303
H         -4.54402        3.59092       -0.31210
H         -3.27210        3.68590        0.96759
H         -0.59238       -1.56083       -0.22397
H         -4.42927        0.57871       -1.16747
H         -4.22396       -2.31669       -1.59372
H         -5.52469       -1.26897       -2.17456
H         -5.54275       -3.14528        0.14124
H         -6.92760       -2.35863       -0.62502
H         -6.88714       -0.53694        0.88672
H         -6.04080       -1.68338        1.93155
H         -3.91170       -0.70931        1.50250
H         -4.88389        0.73323        1.18390
