25
omegapdb_1m5f_03.log	Energy:    -159.9643456
O          2.46639        2.77873        0.09247
C          1.40381        1.93182       -0.00490
O          0.30404        2.42987       -0.08946
C          1.68068        0.47414       -0.00248
N          2.84306       -0.08256        0.37685
O          2.71984       -1.44179        0.29304
C          1.41258       -1.74355       -0.16260
C          0.73282       -0.56097       -0.37078
C         -0.65782       -0.35663       -0.83572
C         -1.64593       -0.44735        0.34954
N         -2.03975       -1.85975        0.56771
C         -2.86598        0.45594        0.07723
O         -4.00226        0.06354       -0.02024
O         -2.64053        1.79508       -0.04208
C          1.09977       -3.16514       -0.27553
H          3.35831        2.33956        0.18595
H         -0.74701        0.63403       -1.34125
H         -0.91943       -1.10777       -1.61445
H         -1.14263       -0.07596        1.28606
H         -2.64482       -2.18565       -0.18702
H         -2.57867       -1.95017        1.42855
H         -1.68167        2.08660        0.02845
H          0.09308       -3.37185        0.15001
H          1.82123       -3.80411        0.25960
H          1.07906       -3.50149       -1.32606
