36
omegapdb_1qxw_21.log	Energy:    -104.8400692
C         -4.74267        0.64922       -0.01669
C         -3.79966        1.63494       -0.67856
C         -3.32983        0.81130        0.52285
N         -2.39405       -0.30583        0.38867
C         -0.98122        0.16801        0.27358
C         -0.06110       -1.06323        0.12524
C          1.46262       -0.74558        0.03299
N          2.15306       -2.05799       -0.15732
C          1.77721        0.17997       -1.15529
C          3.13772        0.87769       -1.03719
C          3.15587        2.04613       -0.03914
C          3.41088        1.60535        1.40014
O         -0.54967       -1.77477       -1.00100
O         -0.15986       -1.92913        1.25219
H         -5.02578       -0.25923       -0.54470
H         -5.58016        1.01512        0.57317
H         -3.41439        1.41736       -1.67099
H         -3.96996        2.70149       -0.56542
H         -3.18951        1.32815        1.48477
H         -2.61950       -0.89125       -0.43135
H         -0.71052        0.71549        1.20369
H         -0.81464        0.86238       -0.58047
H          1.75895       -0.23573        0.99627
H          3.15302       -1.92192       -0.26698
H          2.00735       -2.64865        0.66275
H          0.97645        0.93881       -1.26629
H          1.74306       -0.41461       -2.09399
H          3.42079        1.26036       -2.03944
H          3.92471        0.14480       -0.77625
H          3.94046        2.76851       -0.34271
H          2.20158        2.60559       -0.09524
H          4.40471        1.15976        1.51783
H          2.67228        0.85306        1.72408
H          3.34608        2.45087        2.09370
H          0.06223       -2.51823       -1.23793
H         -1.10287       -2.13692        1.45886
