39
omegacsd_GALSEM_10.log	Energy:    -244.2169842
S          2.86784        0.78401       -1.25879
O          2.07230        0.16774       -2.30425
O          3.95541        1.67845       -1.59162
N          3.74776       -0.52190       -0.47666
C          3.12470       -1.66711        0.03894
O          1.90463       -1.73531        0.01205
C          4.01383       -2.75583        0.59956
C          4.66747       -2.32664        1.90628
C          1.87830        1.44005       -0.06326
C          0.55374        1.00280        0.20490
N         -0.06406        0.09006       -0.61967
C         -1.30835       -0.56427       -0.28695
C         -2.51726        0.14507       -0.35474
C         -3.70897       -0.53408       -0.07763
C         -3.69622       -1.89758        0.25018
C         -2.48147       -2.58959        0.30697
C         -1.28080       -1.93087        0.04383
C         -5.03448        0.18000       -0.12839
F         -4.99864        1.48815       -0.42759
F         -5.89612       -0.32707       -1.02669
F         -5.71760        0.14170        1.02982
C         -0.13164        1.58115        1.32494
C          0.48536        2.57504        2.05383
N          1.75103        3.05043        1.75909
C          2.40488        2.49238        0.73484
H          4.77590       -0.46790       -0.45284
H          3.39124       -3.66446        0.76582
H          4.77985       -3.05711       -0.14480
H          5.25544       -3.14811        2.33753
H          3.91928       -2.03757        2.65745
H          5.34692       -1.47604        1.77462
H          0.48369       -0.38304       -1.38329
H         -2.50849        1.20254       -0.63027
H         -4.62810       -2.42677        0.46134
H         -2.47389       -3.65082        0.56136
H         -0.31965       -2.45922        0.09502
H         -1.12557        1.23227        1.59624
H          0.00106        3.05205        2.91628
H          3.41162        2.89484        0.51763
