66
omegapdb_1z1r_30.log	Energy:    -257.7493648
C          0.44211       -1.91706        0.12200
C         -0.68817       -2.96336        0.27540
C         -2.08052       -2.44125        0.08797
C         -2.87618       -2.09907        1.19359
C         -4.14971       -1.56189        1.00783
C         -4.61473       -1.37425       -0.30190
C         -3.86291       -1.76566       -1.41984
C         -2.59717       -2.30793       -1.21219
O         -5.88134       -0.82021       -0.43777
C         -5.94803        0.37296       -1.26864
C         -5.47147        1.59728       -0.49034
C         -3.95232        1.66595       -0.27716
C         -3.62591        1.68100        1.20071
O         -4.39800        2.07769        2.06195
N         -2.36597        1.26077        1.64721
C         -1.23347        0.77806        0.84008
C         -0.33499       -0.05334        1.78453
O         -0.28358        0.20931        2.97801
N          0.54815       -1.01276        1.28756
C         -0.37888        1.96298        0.33299
C         -0.81682        2.37914       -1.04514
O         -1.04984        1.57824       -1.94544
N         -0.94634        3.74000       -1.29045
C          0.37564       -1.17086       -1.23494
O          0.43764       -2.26171       -2.18169
C          1.53197       -0.19445       -1.54256
N          2.88876       -0.64388       -1.16087
S          3.46135       -0.08677        0.36688
O          2.77900        1.17950        0.59822
O          3.29959       -1.17775        1.31812
C          5.14206        0.16738        0.09265
C          5.56965        1.18999       -0.76090
C          6.93630        1.39665       -0.97133
C          7.87231        0.58225       -0.32450
C          7.44513       -0.43839        0.53280
C          6.07933       -0.64505        0.74199
H          1.40888       -2.51031        0.12183
H         -0.58834       -3.45503        1.26591
H         -0.49369       -3.76794       -0.47334
H         -2.49381       -2.23335        2.20639
H         -4.77567       -1.27060        1.85110
H         -4.26663       -1.65507       -2.42219
H         -1.99441       -2.62702       -2.06515
H         -5.39677        0.21607       -2.20931
H         -7.03570        0.41833       -1.47349
H         -5.98724        1.61048        0.50297
H         -5.81980        2.51420       -1.00399
H         -3.43230        0.83746       -0.80425
H         -3.54584        2.59103       -0.73699
H         -2.18573        1.33272        2.66446
H         -1.59938        0.15791       -0.02870
H          1.23952       -1.35102        1.99324
H         -0.39253        2.78699        1.07662
H          0.71676        1.68039        0.29143
H         -1.19691        4.06546       -2.21227
H         -0.75407        4.44631       -0.60178
H         -0.59820       -0.62952       -1.36655
H          0.27358       -1.93055       -3.08753
H          1.54082       -0.00073       -2.64376
H          1.31310        0.79953       -1.07174
H          3.03472       -1.63302       -1.40772
H          4.84045        1.83243       -1.26359
H          7.27101        2.19230       -1.63585
H          8.93918        0.74440       -0.48753
H          8.17550       -1.06902        1.03886
H          5.74262       -1.44064        1.41872
