41
omegacsd_CEJTIU_09.log	Energy:     -37.7534591
C         -4.28870        0.51767        1.46469
N         -3.56301        0.15799        0.21475
C         -4.50169        0.01031       -0.93344
C         -2.35515        0.87051       -0.04872
C         -1.65128        1.52622        0.98867
C         -0.39276        2.07392        0.75686
C          0.18061        1.98769       -0.52074
C         -0.50675        1.34759       -1.56575
C         -1.76413        0.80177       -1.33441
N          1.47078        2.57637       -0.79310
C          2.69195        1.91838       -0.70677
O          3.71678        2.41788       -1.13460
N          2.71616        0.56802       -0.17236
C          2.28556        0.20425        1.12108
O          1.88641        1.02879        1.91729
C          2.38881       -1.27905        1.42761
C          1.42985       -2.09132        0.60297
C          1.87969       -3.21309       -0.10685
C          0.97314       -3.97084       -0.85536
C         -0.37721       -3.61235       -0.90185
C         -0.82481       -2.49075       -0.19477
C          0.07342       -1.73253        0.55833
H         -5.14431       -0.16416        1.60109
H         -3.62247        0.36877        2.33316
H         -4.66252        1.55332        1.48185
H         -4.93317        0.96312       -1.27800
H         -5.32594       -0.66358       -0.64715
H         -3.97992       -0.46392       -1.78349
H         -2.07510        1.59906        1.98835
H          0.16313        2.54625        1.57392
H         -0.05432        1.27662       -2.55530
H         -2.28223        0.30051       -2.15032
H          1.48277        3.56495       -1.05339
H          3.19306       -0.12079       -0.76240
H          2.15597       -1.42556        2.51076
H          3.43543       -1.62963        1.31531
H          2.92747       -3.50212       -0.07603
H          1.32337       -4.84376       -1.40401
H         -1.07860       -4.20402       -1.48585
H         -1.87643       -2.19959       -0.22847
H         -0.28262       -0.85582        1.10399
