25
omegapdb_1m5f_13.log	Energy:    -163.8117832
O          3.54860       -1.27887        0.53006
C          2.27744       -1.18223        0.03818
O          1.74016       -2.19952       -0.32411
C          1.66822        0.17360       -0.01089
N          2.23585        1.28899        0.47331
O          1.38276        2.33859        0.26082
C          0.22592        1.84620       -0.38957
C          0.36970        0.48691       -0.58043
C         -0.56317       -0.46970       -1.21500
C         -1.39538       -1.23938       -0.16222
N         -2.32431       -2.24212       -0.72321
C         -2.27765       -0.24813        0.60150
O         -2.95630        0.66428        0.18727
O         -2.18502       -0.48731        1.94497
C         -0.79983        2.84418       -0.68010
H          3.96050       -0.42498        0.83466
H         -1.23498        0.05784       -1.92721
H          0.01467       -1.20963       -1.81912
H         -0.70009       -1.75122        0.56638
H         -1.84213       -3.11040       -0.93815
H         -2.78496       -1.91036       -1.56545
H         -2.77596        0.10092        2.48927
H         -1.81755        2.44894       -0.46098
H         -0.67589        3.76572       -0.08745
H         -0.79744        3.13919       -1.74357
