36
omegapdb_1qxw_22.log	Energy:    -105.3754245
C         -3.21662        0.02069        1.08645
C         -4.10897        1.04625        0.41525
C         -2.59816        1.14434        0.25093
N         -2.05307        0.91308       -1.08671
C         -0.58244        0.74817       -1.12567
C         -0.06426       -0.65398       -0.72324
C          0.17607       -0.91644        0.78883
N          0.82167       -2.26270        0.88151
C          1.03075        0.15998        1.48389
C          2.51334        0.20818        1.08912
C          2.80682        1.19697       -0.04755
C          4.30542        1.31088       -0.31866
O          1.05428       -0.89424       -1.55461
O         -1.04282       -1.64441       -1.10276
H         -3.11284        0.02758        2.16650
H         -3.20467       -0.99950        0.70578
H         -4.72891        0.74782       -0.42786
H         -4.62627        1.78926        1.01690
H         -2.06916        1.95283        0.77611
H         -2.50164        0.09958       -1.53391
H         -0.26198        0.94682       -2.17988
H         -0.08258        1.52909       -0.51220
H         -0.84215       -0.90649        1.27093
H          0.14850       -2.98436        0.62346
H          1.13125       -2.45053        1.82953
H          0.96285       -0.00489        2.57911
H          0.56142        1.15149        1.31348
H          3.11172        0.48630        1.97925
H          2.86967       -0.80126        0.80107
H          2.39697        2.19503        0.19782
H          2.28676        0.86658       -0.97305
H          4.50439        2.00494       -1.14330
H          4.73953        0.34349       -0.59615
H          4.85099        1.67719        0.55783
H          1.68520       -1.54295       -1.13811
H         -0.86269       -1.96166       -2.01414
