40
omegapdb_2byh_19.log	Energy:     -90.9477679
O          5.96903        1.86605        1.50449
C          6.04417        0.73825        1.05908
C          7.37775        0.06835        0.87902
C          4.82009       -0.01908        0.67112
C          3.58478        0.65150        0.73904
C          2.39943        0.00852        0.39493
C          2.43993       -1.33118       -0.03505
C          3.67323       -2.01870       -0.09475
C          4.84787       -1.35858        0.25570
N          1.26416       -2.05665       -0.37563
C          0.01419       -1.56975       -0.84550
O         -0.90021       -2.38193       -0.82589
C         -0.08336       -0.21355       -1.36854
C          0.86362        0.41716       -2.25112
N          0.43316        1.65611       -2.58628
N         -0.76355        1.83378       -1.95196
C         -1.13144        0.71657       -1.19600
C         -2.36614        0.66960       -0.43150
C         -3.07808       -0.54057       -0.29040
C         -4.24538       -0.59302        0.46163
Cl        -5.10954       -2.05303        0.63330
C         -4.73236        0.57156        1.10003
O         -5.87233        0.41606        1.82122
C         -4.06515        1.79647        0.97205
C         -2.89875        1.82003        0.19645
O         -2.21491        2.99003       -0.01283
H          7.54961       -0.23307       -0.16166
H          8.19464        0.75331        1.15717
H          7.47727       -0.82191        1.51232
H          3.56740        1.69505        1.07590
H          1.45152        0.54068        0.47194
H          3.71148       -3.05609       -0.41985
H          5.79395       -1.89997        0.20207
H          1.29371       -3.07362       -0.21447
H          1.78967       -0.00453       -2.61396
H         -1.25135        2.72242       -2.00738
H         -2.69856       -1.45841       -0.77981
H         -6.17069        1.26136        2.25283
H         -4.43850        2.69225        1.45233
H         -2.58361        3.74826        0.51051
