44
omegacsd_CUHNEY10_07.log	Energy:     -27.3697533
Cl         4.74627        2.77833       -0.51599
C          3.08523        2.41714       -0.32436
C          2.49063        1.42999       -1.12863
N          1.18204        1.10675       -1.00736
C          0.42969        1.77796       -0.07444
N         -0.94343        1.40756       -0.02636
C         -1.95409        2.03527        0.79556
O         -1.74442        2.91597        1.58098
C         -3.23434        1.35640        0.38732
N         -4.47335        1.63435        0.81427
C         -5.46215        0.87337        0.25443
C         -5.19452       -0.12220       -0.70855
N         -3.92464       -0.40371       -1.13673
C         -2.95800        0.33582       -0.57810
C         -1.45707        0.24175       -0.82277
O         -1.00411       -0.93554       -0.12379
C         -0.38733       -1.93538       -0.90707
O         -0.28319       -1.82566       -2.10697
N         -0.11378       -3.05226       -0.11083
C         -0.07267       -2.91724        1.37553
C          1.29317       -3.34694        1.95878
N          2.46827       -3.04498        1.09506
C          2.32840       -3.69994       -0.24345
C          0.87751       -4.01250       -0.67360
C          2.69464       -1.57440        0.97292
C          0.97071        2.78138        0.76308
C          2.31933        3.09930        0.62851
H          3.06092        0.88074       -1.89077
H         -6.48327        1.08553        0.59677
H         -5.99671       -0.72024       -1.16091
H         -1.11829        0.24433       -1.89101
H         -0.31372       -1.87236        1.67796
H         -0.88593       -3.56156        1.78019
H          1.30096       -4.44424        2.14784
H          1.44537       -2.86403        2.94811
H          2.83265       -3.09260       -1.02459
H          2.90142       -4.65396       -0.17759
H          0.57318       -5.02448       -0.32152
H          0.79376       -4.02035       -1.78557
H          3.63511       -1.40467        0.42375
H          2.83060       -1.14569        1.97869
H          1.89150       -1.01853        0.46605
H          0.34560        3.29997        1.49856
H          2.77341        3.86957        1.25671
