45
omegacsd_FABSOQ10_12.log	Energy:     -99.4073252
S         -0.61884       -1.38142        0.69252
C          1.02162       -1.61261        0.14610
C          1.05264       -1.98658       -1.16161
C         -0.26497       -2.09896       -1.74472
C         -1.26896       -1.80068       -0.87271
C         -2.74497       -1.85273       -1.08525
O         -3.27771       -3.02816       -0.45325
C         -3.46711       -0.60872       -0.60971
C         -2.94088        0.66280       -0.85894
C         -3.62555        1.81384       -0.45452
C         -4.85183        1.66277        0.20334
O         -5.64520        2.68843        0.66668
C         -5.18224        4.04594        0.47007
C         -5.40839        0.39041        0.45584
C         -4.70928       -0.73462        0.04042
C          2.09501       -1.41035        1.16072
O          1.47425       -0.83721        2.32849
C          3.24801       -0.55602        0.69207
C          4.54239       -0.83258        1.17503
C          5.62427       -0.05474        0.78693
C          5.40085        1.02218       -0.09924
O          6.55414        1.70605       -0.40109
C          6.45960        2.83496       -1.30400
C          4.12289        1.31990       -0.58853
C          3.05161        0.51903       -0.18180
H          1.94975       -2.18827       -1.73119
H         -0.40415       -2.40168       -2.77395
H         -2.99756       -2.04983       -2.16166
H         -3.02844       -3.06559        0.49574
H         -1.98487        0.76805       -1.37442
H         -3.20257        2.79170       -0.65263
H         -4.23775        4.20575        0.99771
H         -5.09782        4.26788       -0.59742
H         -5.99243        4.62739        0.92963
H         -6.36706        0.31528        0.96351
H         -5.12370       -1.73256        0.21119
H          2.44343       -2.40456        1.55032
H          1.40870        0.13889        2.25011
H          4.69744       -1.66440        1.86505
H          6.63182       -0.25148        1.14707
H          7.50509        3.16770       -1.35475
H          5.82171        3.61263       -0.87470
H          6.10471        2.50815       -2.28547
H          3.95243        2.14726       -1.26826
H          2.05048        0.73813       -0.55978
