45
omegacsd_SEYMIS_01.log	Energy:     -73.1091230
O         -5.28069       -0.96297       -0.69263
N         -4.92520        0.36366       -0.45557
C         -3.61838        0.40776       -0.15901
C         -3.06908       -0.94023       -0.20583
C         -1.70973       -1.44109        0.04471
O         -1.49248       -2.59265        0.40292
N         -0.66895       -0.53472       -0.19018
C          0.69629       -0.85232        0.02224
C          1.21901       -2.09732        0.45526
N          2.59150       -1.96901        0.52671
C          3.50463       -3.03867        0.93843
C          2.95610       -0.66935        0.14868
C          1.77763        0.03984       -0.16950
C          4.33274       -0.18901        0.10770
O          5.35241       -0.80066        0.36827
O          4.36382        1.13223       -0.27228
C          5.67853        1.76583       -0.39845
C          6.32067        1.35697       -1.70723
C         -4.14402       -1.75379       -0.52770
C         -4.31111       -3.19246       -0.71866
C         -2.91742        1.65431        0.17379
C         -2.96264        2.74233       -0.71162
C         -2.29169        3.92498       -0.38861
C         -1.58535        4.02624        0.81407
C         -1.55065        2.94412        1.70087
C         -2.21621        1.75747        1.38657
H         -0.86362        0.41486       -0.51258
H          0.66665       -2.99674        0.69337
H          3.41364       -3.91369        0.27008
H          4.56524       -2.69678        0.90442
H          3.29085       -3.36305        1.97283
H          1.74345        1.06232       -0.49315
H          6.28931        1.49192        0.48030
H          5.39178        2.83283       -0.36520
H          6.60688        0.29422       -1.69314
H          5.63454        1.49481       -2.55306
H          7.22633        1.93983       -1.91042
H         -3.46163       -3.74373       -0.25439
H         -5.24231       -3.57516       -0.26967
H         -4.32769       -3.46978       -1.78683
H         -3.52665        2.66534       -1.64219
H         -2.32486        4.77086       -1.07459
H         -1.06423        4.95008        1.06341
H         -1.00466        3.02646        2.64054
H         -2.19478        0.91471        2.07905
