39
omegacsd_GALSEM_09.log	Energy:    -242.4763776
S          2.51974        0.00392        1.42267
O          3.19498        0.81714        2.39160
O          1.72046       -1.14328        1.88891
N          3.72755       -0.85331        0.49561
C          4.68997       -0.21258       -0.30911
O          4.61364        0.99429       -0.44896
C          5.75234       -1.08157       -0.94477
C          5.17925       -1.93396       -2.06887
C          1.60492        0.90982        0.33101
C          0.31031        0.54735       -0.12590
N         -0.31332       -0.58882        0.35735
C         -1.66177       -0.97934        0.04461
C         -2.73404       -0.08259        0.19372
C         -4.03063       -0.52701       -0.08208
C         -4.26575       -1.84942       -0.48283
C         -3.19083       -2.73563       -0.60998
C         -1.88758       -2.31113       -0.35165
C         -5.21060        0.40281        0.05248
F         -6.11742        0.00568        0.96122
F         -5.92497        0.54030       -1.07862
F         -4.93793        1.66807        0.40755
C         -0.31967        1.37857       -1.10220
C          0.31281        2.53801       -1.51315
N          1.53967        2.93292       -1.02814
C          2.15639        2.13293       -0.14695
H          3.77754       -1.87610        0.60249
H          6.25114       -1.71394       -0.18183
H          6.55179       -0.41399       -1.34295
H          4.70091       -1.31438       -2.84055
H          5.97241       -2.50909       -2.56545
H          4.43203       -2.65116       -1.71027
H          0.18753       -1.21832        1.04902
H         -2.54165        0.93870        0.53311
H         -5.27957       -2.19638       -0.69371
H         -3.37411       -3.76734       -0.91627
H         -1.05177       -3.00481       -0.45497
H         -1.27760        1.09786       -1.53327
H         -0.13735        3.21227       -2.25444
H          3.15516        2.46895        0.20292
