66
omegapdb_1z1r_13.log	Energy:    -257.6971509
C         -0.14064       -0.45468       -0.56558
C         -0.13173       -1.50320        0.57256
C          1.27387       -1.90549        0.91327
C          1.89567       -1.39044        2.06412
C          3.25297       -1.60645        2.29283
C          3.98183       -2.35077        1.35055
C          3.35837       -2.96535        0.25470
C          1.99941       -2.73403        0.04288
O          5.34618       -2.43423        1.58792
C          6.20957       -2.24420        0.42995
C          6.30901       -0.77022        0.03297
C          4.96767       -0.16619       -0.39020
C          5.12595        0.99147       -1.34242
O          6.06187        1.15087       -2.10507
N          4.10614        1.97365       -1.36800
C          2.89919        1.94925       -0.52684
C          1.83560        0.97521       -1.11052
O          1.90478        0.52174       -2.24120
N          0.79632        0.65369       -0.25014
C          2.32923        3.37735       -0.41408
C          1.60964        3.58316        0.90256
O          1.39158        2.69454        1.71435
N          1.17927        4.87761        1.16812
C         -1.55895        0.14242       -0.78093
O         -2.08210        0.39402        0.53561
C         -2.48361       -0.84688       -1.52927
N         -3.78473       -0.18206       -1.77660
S         -5.22373       -1.02807       -1.32639
O         -4.85229       -2.40197       -1.06026
O         -6.18187       -0.70115       -2.36265
C         -5.67282       -0.25309        0.15035
C         -5.04383       -0.60918        1.34796
C         -5.41002        0.02117        2.54080
C         -6.41007        0.99993        2.53402
C         -7.04458        1.35022        1.33688
C         -6.67609        0.72159        0.14404
H          0.19831       -0.93688       -1.52716
H         -0.73406       -2.38298        0.26987
H         -0.66107       -1.08952        1.46102
H          1.32113       -0.79100        2.77160
H          3.75734       -1.19872        3.16599
H          3.92583       -3.59906       -0.42179
H          1.50680       -3.18409       -0.81879
H          5.87331       -2.88656       -0.40067
H          7.16996       -2.62397        0.83073
H          7.04509       -0.66861       -0.79814
H          6.72701       -0.18325        0.87617
H          4.34135       -0.92768       -0.91658
H          4.38875        0.11351        0.51754
H          4.05970        2.55161       -2.21072
H          3.18609        1.57810        0.50457
H          0.74144        1.03550        0.70574
H          1.64901        3.59483       -1.26550
H          3.16123        4.11415       -0.50652
H          0.70344        5.07583        2.03748
H          1.34811        5.65928        0.56231
H         -1.50063        1.11494       -1.32084
H         -2.95563        0.84004        0.46109
H         -2.00176       -1.17923       -2.47555
H         -2.61951       -1.77165       -0.91515
H         -3.79933        0.32477       -2.67047
H         -4.26692       -1.38204        1.35845
H         -4.91869       -0.25329        3.47400
H         -6.69781        1.48952        3.46571
H         -7.82735        2.10767        1.33418
H         -7.17946        0.98754       -0.79319
