39
omegacsd_GALSEM_02.log	Energy:    -243.6770716
S         -3.11154       -0.20168        1.01524
O         -2.26202       -0.19875        2.19206
O         -4.55224       -0.17173        1.15028
N         -2.88589       -1.76440        0.24484
C         -1.61770       -2.26446       -0.10450
O         -0.65094       -1.53742        0.06064
C         -1.57404       -3.67144       -0.65468
C         -0.23388       -3.96149       -1.31865
C         -2.57848        0.93953       -0.10534
C         -1.24190        1.41265       -0.18555
N         -0.31518        1.07172        0.77420
C          1.10175        1.31142        0.61661
C          1.93640        0.22230        0.30716
C          3.31284        0.43808        0.21061
C          3.85150        1.71866        0.41593
C          3.00636        2.78874        0.72089
C          1.62627        2.59562        0.82473
C          4.25281       -0.69148       -0.12061
F          3.69951       -1.90183       -0.29470
F          5.19858       -0.90798        0.81024
F          4.95469       -0.50082       -1.25229
C         -0.90612        2.30198       -1.26031
C         -1.89410        2.71187       -2.12988
N         -3.21189        2.30598       -2.01869
C         -3.52191        1.45238       -1.03652
H         -3.71266       -2.36442        0.12135
H         -2.39926       -3.84371       -1.37687
H         -1.74764       -4.38821        0.17930
H         -0.07724       -3.33579       -2.20701
H         -0.16111       -5.00993       -1.62983
H          0.60441       -3.75489       -0.63639
H         -0.55614        0.35529        1.50605
H          1.48423       -0.76779        0.14730
H          4.92826        1.88587        0.34056
H          3.42734        3.78216        0.88419
H          0.96479        3.42735        1.07384
H          0.11959        2.64039       -1.38649
H         -1.68885        3.39293       -2.96630
H         -4.58256        1.14724       -0.96832
