66
omegapdb_1z1r_18.log	Energy:    -259.8811675
C          1.11940        0.98645       -0.57347
C          1.13463        0.08804       -1.83936
C         -0.11132       -0.74465       -1.94978
C         -0.42655       -1.66883       -0.93873
C         -1.67588       -2.28511       -0.91083
C         -2.59464       -1.98078       -1.92493
C         -2.25908       -1.15326       -3.00652
C         -1.00863       -0.53603       -3.00957
O         -3.89337       -2.48139       -1.92688
C         -4.63571       -2.25039       -0.69669
C         -4.83107       -0.74574       -0.48241
C         -5.14504       -0.38573        0.96815
C         -4.05562       -0.80323        1.93455
O         -4.19016       -1.73629        2.71082
N         -2.86201       -0.07352        2.01575
C         -2.39258        0.94379        1.06241
C         -0.85707        0.76016        0.91445
O         -0.21183        0.13387        1.74630
N         -0.26677        1.35647       -0.18571
C         -2.70548        2.36446        1.57698
C         -2.75763        3.34925        0.42912
O         -2.60600        3.03254       -0.74344
N         -3.01613        4.67273        0.76015
C          1.93597        2.28958       -0.77366
O          1.49196        3.03120       -1.91301
C          3.45482        2.02725       -0.93210
N          3.99529        1.52839        0.34980
S          4.97880        0.10722        0.33317
O          5.92668        0.32030        1.40341
O          5.43545       -0.09188       -1.03110
C          3.86663       -1.15414        0.71999
C          3.79433       -2.27691       -0.11447
C          2.90642       -3.31246        0.18316
C          2.08479       -3.22348        1.31416
C          2.15282       -2.10135        2.14484
C          3.05072       -1.06868        1.85213
H          1.57793        0.41169        0.28601
H          1.26442        0.71438       -2.74817
H          2.03001       -0.56929       -1.80294
H          0.29500       -1.87212       -0.14346
H         -1.93941       -2.97748       -0.11422
H         -2.97900       -0.98794       -3.80539
H         -0.74673        0.13450       -3.82716
H         -5.57997       -2.78086       -0.91882
H         -4.12293       -2.74622        0.14603
H         -5.64207       -0.37649       -1.14333
H         -3.92125       -0.19176       -0.81844
H         -5.34969        0.70020        1.05541
H         -6.08685       -0.88903        1.28884
H         -2.15627       -0.40030        2.69801
H         -2.88551        0.78962        0.05182
H         -0.81860        1.88250       -0.87810
H         -3.67474        2.35710        2.12291
H         -1.95875        2.67259        2.33980
H         -3.03568        5.37375        0.03160
H         -3.10613        5.00524        1.70267
H          1.74183        3.00425        0.06245
H          1.45206        2.46182       -2.71460
H          3.65271        1.31062       -1.76286
H          3.93988        2.97964       -1.25176
H          4.28118        2.29063        0.97672
H          4.43321       -2.34324       -1.00336
H          2.85228       -4.18787       -0.46303
H          1.38849       -4.03131        1.54585
H          1.49596       -2.01768        3.01219
H          3.09776       -0.19703        2.51145
