66
omegapdb_1z1r_05.log	Energy:    -267.7178517
C          0.36941       -2.08656       -0.65365
C          1.51878       -3.11930       -0.58896
C          2.82876       -2.38960       -0.71904
C          3.24419       -1.91204       -1.97548
C          4.31670       -1.03049       -2.07596
C          4.97604       -0.63570       -0.89856
C          4.65353       -1.19086        0.34725
C          3.57356       -2.07187        0.42666
O          5.97675        0.30644       -1.07205
C          6.00457        1.41052       -0.12136
C          4.82157        2.35108       -0.34250
C          3.59675        1.99034        0.50441
C          2.44449        2.92791        0.22011
O          2.54438        4.00379       -0.34217
N          1.16068        2.56802        0.68910
C          0.81146        1.25688        1.24903
C          0.34531        0.30033        0.11724
O         -0.20962        0.67790       -0.90683
N          0.59248       -1.03768        0.37128
C         -0.33325        1.36604        2.27015
C         -0.37537        0.12172        3.13713
O          0.58705       -0.63298        3.26396
N         -1.54598       -0.09253        3.85611
C         -1.03918       -2.70767       -0.41179
O         -1.11732       -3.99121       -1.05785
C         -2.13401       -1.88175       -1.12975
N         -3.41613       -1.84945       -0.40847
S         -3.89753       -0.52224        0.54185
O         -2.78115       -0.07847        1.38168
O         -5.09021       -0.98009        1.22994
C         -4.26925        0.71435       -0.59126
C         -5.60527        0.92771       -0.95542
C         -5.92793        1.92997       -1.87278
C         -4.91340        2.71900       -2.42870
C         -3.57974        2.50788       -2.06476
C         -3.25690        1.50590       -1.14470
H          0.38751       -1.60414       -1.67284
H          1.47914       -3.70606        0.34846
H          1.38712       -3.85579       -1.41024
H          2.70374       -2.20627       -2.87525
H          4.63622       -0.62448       -3.03377
H          5.22723       -0.93505        1.23360
H          3.30010       -2.49409        1.39379
H          6.96602        1.88314       -0.40552
H          6.07230        1.01835        0.90527
H          5.12165        3.40050       -0.13478
H          4.54668        2.34491       -1.42148
H          3.30319        0.93731        0.29863
H          3.84712        2.03709        1.58554
H          0.37676        3.13450        0.35242
H          1.71200        0.82138        1.77534
H          0.97235       -1.34172        1.27835
H         -0.19571        2.26072        2.91587
H         -1.31469        1.51347        1.75520
H         -1.63318       -0.96394        4.36427
H         -2.42817        0.25841        3.48418
H         -1.24408       -2.83291        0.67261
H         -0.69304       -4.68319       -0.51549
H         -2.30798       -2.35151       -2.13388
H         -1.76843       -0.84335       -1.32959
H         -3.81331       -2.77820       -0.22967
H         -6.40028        0.31358       -0.51624
H         -6.96659        2.09693       -2.15522
H         -5.16469        3.50067       -3.14753
H         -2.78778        3.11965       -2.49837
H         -2.20202        1.35159       -0.86656
