46
omegacsd_CDBMPI10_08.log	Energy:     -39.8514716
O         -2.03363       -1.89159        1.30219
C         -2.19588       -1.10107        0.38909
N         -1.19529       -0.85373       -0.58595
C          0.15812       -1.49859       -0.48702
C          1.06331       -0.65604        0.45446
N          1.15652        0.72998       -0.06537
C         -0.14005        1.43207       -0.30914
C         -1.07828        0.52060       -1.15066
C         -0.78049        1.85125        1.01475
C          2.35569        1.36098       -0.40896
O          2.33346        2.48060       -0.89929
C          3.62770        0.61414       -0.13789
C          4.19755        0.64994        1.14077
C          5.40857       -0.00824        1.37372
C          6.04467       -0.69552        0.33429
C          5.47377       -0.72296       -0.94253
C          4.26374       -0.06555       -1.18374
C          0.09954       -2.95289       -0.03913
C         -3.51409       -0.41489        0.16748
C         -4.22385       -0.60774       -1.02487
C         -5.47202       -0.00138       -1.19177
C         -6.00738        0.79348       -0.17244
C         -5.29927        0.97739        1.01990
C         -4.05335        0.36856        1.19585
H          0.58330       -1.46372       -1.52930
H          0.63667       -0.63923        1.48380
H          2.06807       -1.12152        0.53608
H          0.08333        2.35945       -0.91481
H         -2.07831        0.99658       -1.24184
H         -0.68243        0.43189       -2.18827
H         -0.98945        0.99728        1.66984
H         -1.72459        2.38248        0.84849
H         -0.11817        2.52810        1.57138
H          3.70339        1.19383        1.94562
H          5.85863        0.01847        2.36517
H          6.98902       -1.20646        0.51860
H          5.97458       -1.25174       -1.75229
H          3.82342       -0.07233       -2.18057
H         -0.62271       -3.52626       -0.63531
H          1.07453       -3.44040       -0.13578
H         -0.23094       -3.05500        1.00899
H         -3.80432       -1.23191       -1.81472
H         -6.02922       -0.15140       -2.11533
H         -6.98005        1.26588       -0.30548
H         -5.72169        1.58879        1.81604
H         -3.50850        0.49018        2.13261
