57
omegacsd_SPIRIL_03.log	Energy:     -34.0365284
C         -2.48605        0.24494        1.51524
C         -3.10608        0.69344        0.17954
C         -2.72525        2.17598       -0.11723
O         -1.62606        2.68409       -0.17396
N         -3.90388        2.88458       -0.36534
C         -5.12315        2.06423       -0.16815
N         -4.60828        0.73901        0.32612
C         -5.40779       -0.41942        0.08225
C         -4.99888       -1.65932        0.62477
C         -5.81733       -2.77792        0.49994
C         -7.05068       -2.69167       -0.15805
C         -7.45793       -1.46797       -0.69184
C         -6.64858       -0.33437       -0.58228
C         -2.61698       -0.18544       -0.98725
C         -1.08119       -0.26141       -1.01189
N         -0.59347       -0.79079        0.30336
C          0.86701       -1.09280        0.27920
C          1.80499        0.10257        0.02425
C          3.24574       -0.29755        0.03282
C          4.26066        0.56849       -0.12479
C          5.66611        0.09485       -0.10079
C          6.12793       -0.78874       -1.09031
C          7.45058       -1.23802       -1.07903
C          8.28705       -0.78297       -0.05624
C          7.86219        0.09509        0.94534
C          6.53692        0.53329        0.91124
F          9.55330       -1.20688       -0.03438
C          4.07258        2.03815       -0.32770
C         -0.95628        0.15000        1.41301
H         -2.90491       -0.75174        1.78986
H         -2.77599        0.93203        2.33177
H         -3.95804        3.88461       -0.49170
H         -5.78524        2.49293        0.62275
H         -5.69369        1.98833       -1.12647
H         -4.04528       -1.73646        1.15729
H         -5.49447       -3.72995        0.92228
H         -7.68396       -3.56970       -0.24942
H         -8.41701       -1.39154       -1.20430
H         -6.99104        0.60040       -1.01726
H         -2.99388        0.19502       -1.95389
H         -3.02518       -1.21333       -0.88221
H         -0.65911        0.74096       -1.25724
H         -0.75884       -0.96073       -1.81238
H          1.12048       -1.57106        1.25202
H          1.02923       -1.87371       -0.49716
H          1.55507        0.58243       -0.94634
H          1.62856        0.89251        0.78586
H          3.44424       -1.35962        0.18273
H          5.44924       -1.12352       -1.87512
H          7.81381       -1.92097       -1.84478
H          8.53997        0.42858        1.72901
H          6.17265        1.21792        1.67746
H          3.39218        2.24122       -1.16757
H          5.01433        2.55862       -0.54471
H          3.63368        2.50945        0.56335
H         -0.52608        1.16976        1.27301
H         -0.54607       -0.25354        2.36293
