40
omegapdb_2byh_14.log	Energy:     -90.8672059
O         -7.40322       -0.46202        0.97425
C         -6.50345       -1.05515        0.41229
C         -6.71945       -2.43555       -0.14139
C         -5.15725       -0.43630        0.25221
C         -4.08571       -1.08366       -0.37998
C         -2.84589       -0.46045       -0.50324
C         -2.66692        0.83571        0.01280
C         -3.73760        1.50057        0.65333
C         -4.96675        0.86035        0.76605
N         -1.42754        1.53632       -0.08133
C         -0.23417        1.05012       -0.66982
O         -0.14458       -0.06805       -1.13995
C          0.86687        2.02415       -0.65306
C          0.81730        3.41037       -1.03007
N          2.05646        3.95405       -0.96118
N          2.89644        2.95667       -0.55066
C          2.21209        1.74936       -0.35033
C          2.87467        0.53363        0.07896
C          2.71138       -0.64056       -0.69235
C          3.38398       -1.80377       -0.34936
Cl         3.21505       -3.22228       -1.28083
C          4.22286       -1.82768        0.79420
O          4.84711       -3.00795        1.03961
C          4.37225       -0.69843        1.60307
C          3.67693        0.46446        1.23942
O          3.86045        1.51682        2.09238
H         -7.75332       -2.76862        0.04162
H         -6.55606       -2.47273       -1.22576
H         -6.05574       -3.17346        0.32653
H         -4.20951       -2.08972       -0.78529
H         -2.01677       -0.97971       -0.99752
H         -3.61307        2.50175        1.05773
H         -5.80743        1.36161        1.25999
H         -1.41026        2.47019        0.33877
H         -0.05007        3.97114       -1.34585
H          3.89417        3.12334       -0.48470
H          2.03280       -0.62482       -1.56015
H          5.41472       -2.97540        1.85816
H          4.98829       -0.69642        2.49839
H          3.20397        2.24911        1.95773
