57
omegacsd_SPIRIL_20.log	Energy:     -29.9713930
C          3.26303        0.77915       -1.30160
C          3.58379        0.97173        0.19618
C          4.53618        2.20256        0.31529
O          4.28827        3.36774        0.10266
N          5.80415        1.73506        0.67634
C          5.81641        0.28031        0.96755
N          4.37704       -0.14501        0.83333
C          4.13507       -1.49260        0.39037
C          2.88156       -2.05719        0.71013
C          2.61863       -3.38643        0.38750
C          3.58965       -4.16883       -0.25001
C          4.83055       -3.61029       -0.56433
C          5.10941       -2.27698       -0.25264
C          2.31609        1.22269        1.03244
C          1.26977        1.94824        0.17318
N          0.77818        1.14350       -0.98469
C         -0.44494        0.34304       -0.64224
C         -1.66405        1.28380       -0.64037
C         -2.94245        0.55451       -0.37722
C         -4.14438        1.15231       -0.32612
C         -5.36930        0.36051       -0.05581
C         -5.78845       -0.62040       -0.96975
C         -6.94198       -1.36980       -0.72672
C         -7.65396       -1.11189        0.44781
C         -7.26677       -0.14446        1.37991
C         -6.11239        0.59454        1.11362
F         -8.75737       -1.82355        0.69181
C         -4.34985        2.61999       -0.52685
C          1.84516        0.24948       -1.55176
H          3.36953        1.75661       -1.82604
H          3.99936        0.10453       -1.77792
H          6.57655        2.32848        0.94263
H          6.50954       -0.24360        0.26484
H          6.13191        0.06971        2.01770
H          2.13235       -1.44727        1.22166
H          1.65200       -3.82251        0.63948
H          3.37808       -5.20677       -0.49571
H          5.58934       -4.21549       -1.06028
H          6.07873       -1.85517       -0.51259
H          1.91233        0.25681        1.40681
H          2.55417        1.80965        1.93896
H          0.41722        2.27865        0.80176
H          1.71693        2.87914       -0.25645
H         -0.59283       -0.43856       -1.41941
H         -0.36223       -0.18471        0.33088
H         -1.52272        2.08948        0.11191
H         -1.71560        1.81419       -1.61783
H         -2.85487       -0.52087       -0.21868
H         -5.21057       -0.79487       -1.87772
H         -7.27248       -2.12916       -1.43304
H         -7.84434        0.03021        2.28581
H         -5.78215        1.35683        1.81949
H         -3.89649        2.95999       -1.46960
H         -5.41164        2.89629       -0.56372
H         -3.88627        3.20058        0.28308
H          1.65619        0.21512       -2.65003
H          1.77187       -0.79591       -1.17981
