50
omegapdb_1xom_06.log	Energy:    -144.7028612
O         -5.99212        0.45680       -0.03231
C         -5.11684        1.50140        0.15104
O         -5.54581        2.62312        0.28506
C         -3.67653        1.03049        0.15189
C         -3.44652        0.02690        1.29584
C         -1.99589       -0.46114        1.30534
C         -1.56779       -1.06702       -0.05973
C         -1.87309       -0.08237       -1.22216
C         -3.32529        0.40103       -1.20806
C         -2.36612       -2.28940       -0.28381
N         -3.01317       -3.22978       -0.45849
C         -0.07269       -1.38291       -0.03024
C          0.41490       -2.67573       -0.16309
C          1.80115       -2.93631       -0.12901
C          2.69314       -1.89036        0.04044
O          4.06452       -1.97020        0.09724
C          4.65202       -3.28824       -0.03783
C          2.19759       -0.54717        0.17988
C          0.83331       -0.30667        0.14345
O          3.18963        0.38052        0.34484
C          2.82699        1.79194        0.52098
C          4.15727        2.41641        0.97238
C          4.52346        3.49183       -0.06388
C          3.28732        3.69211       -0.96161
C          2.43733        2.41850       -0.82693
H         -6.94329        0.74927       -0.03581
H         -3.03443        1.93529        0.31828
H         -4.14407       -0.83161        1.18385
H         -3.69253        0.49164        2.27032
H         -1.85527       -1.21555        2.10533
H         -1.31741        0.37527        1.56410
H         -1.64577       -0.57157       -2.19056
H         -1.18648        0.78453       -1.15885
H         -4.01742       -0.44350       -1.41738
H         -3.48526        1.13289       -2.02346
H         -0.25306       -3.52702       -0.29737
H          2.14573       -3.96138       -0.23696
H          4.32883       -3.93691        0.78095
H          4.41539       -3.71389       -1.01687
H          5.72293       -3.05822        0.04214
H          0.44996        0.70519        0.24607
H          2.03242        1.85417        1.28652
H          4.07193        2.83744        1.98688
H          4.93812        1.62879        1.02791
H          4.82319        4.43433        0.42223
H          5.38844        3.16313       -0.66781
H          3.57675        3.87333       -2.00985
H          2.71288        4.57834       -0.63923
H          2.66702        1.70642       -1.64444
H          1.36122        2.63640       -0.89454
