39
omegacsd_FIBREN_08.log	Energy:     -54.1532329
N          2.99402       -1.08508        1.60481
C          1.71881       -0.99720        2.13114
N          0.61773       -0.47898        1.50062
C          0.73787        0.03936        0.22093
C          2.01052       -0.01911       -0.40903
C          3.08462       -0.59164        0.35020
O          4.22630       -0.55583       -0.41972
C          3.78392        0.06029       -1.66602
N          2.50637        0.37412       -1.67124
C          4.85896        0.19983       -2.65089
N         -0.34331        0.62582       -0.39221
C         -1.70394        0.61402        0.20956
C         -2.41794        1.93579       -0.14016
C         -1.82414        3.08923        0.61273
O         -1.65303        3.24505        1.79578
O         -1.47833        4.08359       -0.27546
C         -2.47471       -0.59204       -0.29835
C         -3.03640       -0.62324       -1.58197
C         -3.72805       -1.75833       -2.01456
C         -3.85616       -2.86714       -1.17183
C         -3.28516       -2.84218        0.10454
C         -2.59269       -1.70950        0.54095
C          1.52195       -1.52647        3.51012
H          5.69530        0.80198       -2.25381
H          5.27643       -0.78208       -2.93572
H          4.49884        0.69149       -3.57188
H         -0.25422        0.89277       -1.37452
H         -1.59744        0.55349        1.33754
H         -2.40240        2.13850       -1.23451
H         -3.49759        1.84991        0.12643
H         -1.07241        4.87591        0.16946
H         -2.93565        0.22964       -2.25011
H         -4.16537       -1.77952       -3.01166
H         -4.39609       -3.74995       -1.51067
H         -3.37617       -3.70766        0.75960
H         -2.13121       -1.69879        1.53101
H          0.92963       -0.83099        4.12712
H          0.97694       -2.48396        3.48780
H          2.48356       -1.70434        4.02098
