35
omegacsd_DIAVER_01.log	Energy:     -21.5629058
N          4.23511        0.80285       -0.82175
C          4.40893        0.43900        0.50753
N          3.50606       -0.29180        1.25623
C          2.39223       -0.75803        0.59431
C          2.15247       -0.45127       -0.78219
C          3.11128        0.34060       -1.42574
C          0.94911       -0.95978       -1.51209
C         -0.34220       -0.39009       -0.98019
C         -1.39871       -1.25440       -0.65173
C         -2.60571       -0.73649       -0.16751
C         -2.75865        0.66945       -0.00921
C         -1.70370        1.51976       -0.33870
C         -0.50049        0.98972       -0.82138
O         -3.98841        1.07951        0.48440
C         -4.21716        2.50519        0.59010
O         -3.52453       -1.71802        0.11895
C         -4.84139       -1.31313        0.57159
N          1.55719       -1.58726        1.33538
N          5.59477        0.80950        1.12367
H          2.99145        0.63271       -2.47800
H          0.94035       -2.07248       -1.47421
H          1.02073       -0.71964       -2.59719
H         -1.31031       -2.33255       -0.78071
H         -1.79891        2.59684       -0.22460
H          0.31992        1.66194       -1.06945
H         -3.52076        2.95039        1.30646
H         -5.24582        2.53676        0.97107
H         -4.14898        2.97782       -0.39392
H         -5.34415       -2.27908        0.69249
H         -4.76103       -0.77444        1.52207
H         -5.32741       -0.69465       -0.18993
H          0.59096       -1.67971        1.05269
H          1.72193       -1.65221        2.33235
H          6.17673        1.50099        0.67545
H          5.67079        0.71907        2.12509
