41
omegacsd_CEJTIU_11.log	Energy:     -45.1474850
C         -6.86674       -0.66090       -0.96781
N         -6.12272        0.25164       -0.05263
C         -6.62635        1.64969       -0.16815
C         -4.69823        0.09971       -0.05527
C         -4.11961       -1.16863       -0.29806
C         -2.74960       -1.36424       -0.16745
C         -1.91775       -0.29030        0.20733
C         -2.47593        0.97398        0.45279
C         -3.84863        1.16408        0.31956
N         -0.51103       -0.56379        0.31924
C          0.44308        0.38853        0.65078
O          0.25590        1.56985        0.88700
N          1.82246       -0.06671        0.73337
C          2.31631       -1.36385        0.50013
O          1.56774       -2.27657        0.19000
C          3.80520       -1.55754        0.69870
C          4.64431       -0.47940        0.07502
C          4.74381       -0.39448       -1.32219
C          5.52405        0.60712       -1.90464
C          6.20732        1.52503       -1.09961
C          6.10866        1.43909        0.29234
C          5.32823        0.44048        0.88260
H         -6.64342       -1.70945       -0.70323
H         -6.63483       -0.51165       -2.03343
H         -7.95008       -0.52027       -0.82168
H         -6.35134        2.15013       -1.10928
H         -6.24002        2.24818        0.67575
H         -7.72501        1.65029       -0.07976
H         -4.74787       -2.01369       -0.57691
H         -2.32872       -2.35145       -0.35625
H         -1.83816        1.81562        0.74735
H         -4.25662        2.15312        0.52282
H         -0.21189       -1.54372        0.13641
H          2.48443        0.69508        0.95508
H          4.08627       -2.55233        0.27363
H          4.01153       -1.65866        1.78833
H          4.21278       -1.10652       -1.95286
H          5.59913        0.67332       -2.98977
H          6.81400        2.30509       -1.55662
H          6.64039        2.15278        0.92098
H          5.26062        0.37966        1.96713
