35
omegacsd_DIAVER_04.log	Energy:     -19.6821161
N         -4.23894        0.44641       -1.01458
C         -4.38720        0.42872        0.36607
N         -3.46312       -0.08098        1.25827
C         -2.30564       -0.59546        0.72014
C         -2.06411       -0.59071       -0.68916
C         -3.07454       -0.05544       -1.49781
C         -0.81281       -1.15661       -1.28462
C          0.43677       -0.43647       -0.84175
C          1.56208       -1.19552       -0.44273
C          2.72186       -0.54388       -0.04901
C          2.77582        0.89006       -0.03914
C          1.66592        1.62414       -0.43144
C          0.49567        0.95296       -0.83472
O          3.98945        1.38401        0.38619
C          4.14182        2.82433        0.40178
O          3.89294       -1.13098        0.36894
C          3.96031       -2.57761        0.32893
N         -1.43009       -1.18508        1.63026
N         -5.52319        1.02391        0.89679
H         -2.96840       -0.02269       -2.59084
H         -0.86088       -1.12071       -2.39682
H         -0.75415       -2.24105       -1.04042
H          1.51149       -2.27977       -0.46308
H          1.68151        2.71063       -0.43562
H         -0.37117        1.53869       -1.13963
H          4.03582        3.23169       -0.60743
H          3.43481        3.27629        1.10276
H          5.17407        2.93007        0.76155
H          3.23080       -3.01335        1.01651
H          4.98614       -2.75710        0.67844
H          3.82737       -2.93936       -0.69444
H         -0.45205       -1.24565        1.37775
H         -1.60269       -1.01821        2.61490
H         -6.29144        1.23015        0.27549
H         -5.74862        0.85511        1.86549
