34
omegapdb_2f7p_17.log	Energy:    -117.2213082
C         -1.19384        0.26237       -0.92998
N          0.20317       -0.14969       -0.62793
C          1.22621        0.83535       -1.10019
C          2.55843        0.49676       -0.47521
C          3.47660       -0.30795       -1.16388
C          4.71084       -0.61327       -0.58266
C          5.03084       -0.12200        0.68679
C          4.11198        0.67502        1.37767
C          2.87748        0.98455        0.80093
C         -2.05941       -1.03869       -1.00650
O         -1.32150       -2.22661       -1.28412
C         -2.71627       -1.22335        0.39508
O         -2.15400       -2.33107        1.09645
C         -2.37387        0.05046        1.22381
O         -1.29886       -0.20561        2.13327
C         -1.82690        1.08140        0.21944
S         -3.19288        2.04141       -0.49275
H         -1.22737        0.80407       -1.90655
H          0.31039       -0.32046        0.38836
H          1.27964        0.76180       -2.21151
H          0.95306        1.89111       -0.87323
H          3.22752       -0.70071       -2.14831
H          5.42317       -1.23748       -1.12009
H          5.99220       -0.36087        1.13766
H          4.35781        1.05467        2.36839
H          2.16541        1.60180        1.34603
H         -2.81976       -0.97970       -1.81336
H         -0.33638       -2.03415       -1.31591
H         -3.80682       -1.41068        0.33602
H         -1.58841       -2.87462        0.45844
H         -3.22457        0.41275        1.83419
H         -1.22268       -1.19546        2.29478
H         -1.08481        1.74830        0.71255
H         -3.47223        2.84719        0.55536
