25
omegapdb_1m5f_18.log	Energy:    -163.5789615
O          1.03948       -2.19915       -1.33922
C          1.46096       -1.89616       -0.05980
O          1.59011       -2.76241        0.76472
C          1.72867       -0.44229        0.03322
N          2.89927        0.06599        0.44171
O          2.80030        1.43731        0.42617
C          1.50236        1.78614       -0.00973
C          0.79651        0.63259       -0.27308
C         -0.59153        0.47192       -0.75998
C         -1.51091       -0.05289        0.36922
N         -1.39049       -1.51883        0.48079
C         -2.93540        0.45810        0.11238
O         -3.30960        1.56566       -0.18342
O         -3.84871       -0.55540        0.28604
C          1.23950        3.22395       -0.08153
H          0.84604       -3.17080       -1.44198
H         -0.59701       -0.23550       -1.62389
H         -0.97985        1.43858       -1.15337
H         -1.18847        0.40132        1.35289
H         -1.77031       -1.98834       -0.33794
H         -1.89301       -1.87044        1.29414
H         -4.78888       -0.25850        0.14665
H          1.13664        3.56505       -1.12678
H          2.05308        3.81733        0.37152
H          0.30671        3.49504        0.44268
