24
omegapdb_1gs5_12.log	Energy:    -235.9875727
C          0.66827        0.44418       -0.49188
C          0.48750        1.75723        0.28008
O          0.07777        1.93189        1.40471
O          0.85280        2.80945       -0.50809
C         -0.70819       -0.12767       -0.87178
C         -1.61828       -0.42322        0.32323
C         -3.03301       -0.67697       -0.13153
O         -3.45771       -0.73987       -1.25405
O         -3.95250       -0.86689        0.88343
N          1.45897       -0.46470        0.35293
C          2.68691       -0.98539       -0.10629
O          3.09569       -0.69709       -1.21379
C          3.38627       -1.88414        0.86785
H          1.25231        0.65412       -1.44657
H          0.75267        3.69438       -0.05731
H         -0.55928       -1.05562       -1.46827
H         -1.21605        0.57625       -1.57034
H         -1.59564        0.42404        1.05004
H         -1.24353       -1.30574        0.88287
H         -3.60797       -0.78377        1.79784
H          1.08474       -0.68418        1.27011
H          3.62506       -1.37864        1.81383
H          4.34485       -2.22621        0.43861
H          2.80477       -2.78584        1.10278
