44
omegacsd_CUHNEY10_04.log	Energy:     -27.3697273
Cl         4.74377        2.78147       -0.51595
C          3.08296        2.41915       -0.32445
C          2.48917        1.43134       -1.12844
N          1.18074        1.10725       -1.00725
C          0.42784        1.77825       -0.07466
N         -0.94502        1.40691       -0.02651
C         -1.95621        2.03451        0.79483
O         -1.74718        2.91591        1.57964
C         -3.23591        1.35437        0.38707
N         -4.47511        1.63161        0.81386
C         -5.46333        0.86940        0.25463
C         -5.19494       -0.12665       -0.70761
N         -3.92484       -0.40743       -1.13567
C         -2.95879        0.33332       -0.57766
C         -1.45779        0.24034       -0.82242
O         -1.00369       -0.93627       -0.12320
C         -0.38620       -1.93583       -0.90635
O         -0.28304       -1.82665       -2.10639
N         -0.11083       -3.05185       -0.10960
C         -0.06820       -2.91560        1.37662
C          1.29809       -3.34536        1.95873
N          2.47240       -3.04336        1.09395
C          2.33148       -3.69881       -0.24423
C          0.88028       -4.01199       -0.67285
C          2.69826       -1.57275        0.97103
C          0.96806        2.78235        0.76260
C          2.31644        3.10113        0.62809
H          3.05989        0.88219       -1.89031
H         -6.48461        1.08105        0.59681
H         -5.99664       -0.72570       -1.15951
H         -1.11927        0.24295       -1.89076
H         -0.88133       -3.55918        1.78269
H         -0.30848       -1.87034        1.67839
H          1.30601       -4.44265        2.14777
H          1.45117       -2.86248        2.94793
H          2.83481       -3.09160       -1.02607
H          2.90485       -4.65264       -0.17860
H          0.79549       -4.02042       -1.78475
H          0.57662       -5.02392       -0.32001
H          2.83402       -1.14336        1.97654
H          1.89497       -1.01746        0.46376
H          3.63871       -1.40306        0.42182
H          0.34244        3.30076        1.49778
H          2.76995        3.87193        1.25606
