44
omegacsd_CUHNEY10_06.log	Energy:     -27.3697442
Cl         4.74608        2.77883       -0.51595
C          3.08506        2.41751       -0.32433
C          2.49065        1.42999       -1.12830
N          1.18207        1.10667       -1.00705
C          0.42956        1.77814       -0.07445
N         -0.94354        1.40763       -0.02638
C         -1.95429        2.03537        0.79541
O         -1.74473        2.91618        1.58074
C         -3.23447        1.35633        0.38724
N         -4.47352        1.63422        0.81411
C         -5.46223        0.87306        0.25435
C         -5.19449       -0.12260       -0.70850
N         -3.92457       -0.40405       -1.13661
C         -2.95801        0.33565       -0.57804
C         -1.45705        0.24166       -0.82264
O         -1.00401       -0.93548       -0.12347
C         -0.38746       -1.93556       -0.90666
O         -0.28360       -1.82612       -2.10661
N         -0.11380       -3.05223       -0.11019
C         -0.07191       -2.91667        1.37610
C          1.29409       -3.34657        1.95883
N          2.46884       -3.04525        1.09442
C          2.32814       -3.70071       -0.24375
C          0.87695       -4.01294       -0.67312
C          2.69552       -1.57479        0.97153
C          0.97040        2.78191        0.76279
C          2.31899        3.09992        0.62823
H          3.06108        0.88052       -1.89016
H         -6.48339        1.08518        0.59663
H         -5.99661       -0.72076       -1.16082
H         -1.11824        0.24411       -1.89087
H         -0.88518       -3.56058        1.78140
H         -0.31249       -1.87160        1.67823
H          1.44692       -2.86335        2.94790
H          1.30166       -4.44380        2.14828
H          2.83227       -3.09386       -1.02536
H          2.90086       -4.65491       -0.17777
H          0.79268       -4.02109       -1.78506
H          0.57247       -5.02472       -0.32061
H          2.83148       -1.14554        1.97707
H          1.89254       -1.01905        0.46426
H          3.63608       -1.40559        0.42235
H          0.34517        3.30067        1.49805
H          2.77293        3.87045        1.25621
