66
omegapdb_1z1r_03.log	Energy:    -260.6415182
C          0.37312        0.58333       -0.22920
C          0.38960       -0.40885       -1.41415
C         -0.59045       -1.52402       -1.18707
C         -1.73402       -1.63038       -1.99146
C         -2.73995       -2.54666       -1.67509
C         -2.58200       -3.34224       -0.53374
C         -1.39957       -3.32653        0.22522
C         -0.40107       -2.41981       -0.11767
O         -3.56663       -4.21748       -0.09032
C         -4.89011       -3.63933        0.09296
C         -4.86980       -2.53863        1.15333
C         -4.80670       -1.12700        0.55702
C         -4.39260       -0.11794        1.60419
O         -4.60104       -0.23261        2.79666
N         -3.67482        1.03044        1.19112
C         -3.45932        1.45293       -0.20012
C         -1.95657        1.47119       -0.60737
O         -1.64267        2.05806       -1.64604
N         -1.03196        0.85750        0.20627
C         -4.05912        2.84571       -0.46232
C         -3.33873        3.92486        0.32983
O         -3.57929        4.16191        1.50234
N         -2.38158        4.65237       -0.36673
C          1.08031        1.93388       -0.54352
O          1.09651        2.20956       -1.94737
C          2.56192        2.00667       -0.10639
N          3.47743        1.07425       -0.79577
S          3.75815       -0.46223       -0.07386
O          2.90068       -0.53668        1.10450
O          3.57443       -1.42836       -1.14069
C          5.40947       -0.41263        0.41152
C          5.74258       -0.01894        1.71224
C          7.08300        0.02360        2.10551
C          8.08741       -0.33054        1.19744
C          7.75385       -0.73162       -0.10095
C          6.41297       -0.77421       -0.49389
H          0.88703        0.10240        0.65897
H          0.17487        0.13125       -2.36222
H          1.41166       -0.82698       -1.56131
H         -1.84677       -0.98803       -2.86487
H         -3.62134       -2.64601       -2.30115
H         -1.28852       -4.00875        1.06588
H          0.52659       -2.38678        0.45921
H         -5.44559       -4.53565        0.43349
H         -5.28158       -3.30885       -0.88163
H         -4.00077       -2.70640        1.83054
H         -5.75538       -2.62209        1.81692
H         -5.80297       -0.83853        0.15938
H         -4.11237       -1.11252       -0.31051
H         -3.54189        1.76859        1.90453
H         -3.93975        0.71924       -0.91165
H         -1.34186        0.32847        1.02650
H         -5.13301        2.86013       -0.17166
H         -4.03886        3.05568       -1.55419
H         -2.02526        4.34331       -1.26342
H         -1.83750        5.35245        0.11556
H          0.52702        2.76671       -0.04022
H          0.14976        2.23787       -2.28466
H          2.92702        3.04093       -0.33602
H          2.62684        1.87783        0.99903
H          3.30454        1.09366       -1.81744
H          4.95542        0.24492        2.42706
H          7.34448        0.32912        3.11793
H          9.13412       -0.29652        1.50406
H          8.53661       -1.01284       -0.80460
H          6.15213       -1.10109       -1.50651
