39
omegacsd_FIBREN_01.log	Energy:     -55.0948346
N         -3.67182        1.54500       -0.49763
C         -2.43133        2.14273       -0.62741
N         -1.21783        1.53501       -0.44051
C         -1.16523        0.19064       -0.10035
C         -2.39263       -0.50618        0.06462
C         -3.59800        0.24054       -0.15427
O         -4.67026       -0.60021        0.04607
C         -4.05070       -1.87528        0.39275
N         -2.73601       -1.83230        0.40678
C         -5.02658       -2.93605        0.65188
N          0.04625       -0.42720        0.07235
C          1.34604        0.26778       -0.13447
C          1.64113        1.20140        1.06234
C          2.85237        2.03964        0.80667
O          3.33223        2.44126       -0.22581
O          3.43804        2.37618        2.00900
C          2.42994       -0.77916       -0.30790
C          2.71403       -1.70695        0.70510
C          3.71758       -2.66094        0.51771
C          4.44466       -2.69016       -0.67704
C          4.16754       -1.76136       -1.68474
C          3.16168       -0.80755       -1.50330
C         -2.41996        3.58525       -0.99925
H         -4.52774       -3.88673        0.91107
H         -5.66508       -3.12218       -0.22996
H         -5.70011       -2.67171        1.48619
H          0.05712       -1.41673        0.33141
H          1.26465        0.91318       -1.06109
H          1.74579        0.63528        2.01253
H          0.76732        1.88283        1.22603
H          4.24146        2.95124        1.89728
H          2.16136       -1.68493        1.64332
H          3.93546       -3.38106        1.30528
H          5.22733       -3.43373       -0.82078
H          4.73658       -1.77790       -2.61371
H          2.95708       -0.07962       -2.29000
H         -3.02554        3.76553       -1.90368
H         -2.86231        4.20063       -0.19811
H         -1.40090        3.95827       -1.19075
