25
omegapdb_1m5f_19.log	Energy:    -157.2504227
O          2.19940       -2.59360       -0.30157
C          1.50368       -1.73332        0.49596
O          0.89794       -2.19287        1.43266
C          1.56438       -0.28489        0.14725
N          2.57306        0.30475       -0.50675
O          2.28662        1.64026       -0.63314
C          1.03146        1.88317       -0.02697
C          0.54344        0.69818        0.47948
C         -0.71968        0.41650        1.19729
C         -1.95658        0.50640        0.27979
N         -3.24086        0.32424        1.00378
C         -1.91011       -0.54114       -0.85128
O         -0.91751       -0.95268       -1.39655
O         -3.11346       -0.98543       -1.31876
C          0.58648        3.27657       -0.08651
H          2.64814       -2.17781       -1.08733
H         -0.66020       -0.60130        1.66399
H         -0.83430        1.12067        2.04946
H         -1.96759        1.51072       -0.22920
H         -3.18057       -0.43539        1.68128
H         -3.49957        1.16536        1.51209
H         -3.91077       -0.63859       -0.81698
H          1.41855        3.96347       -0.32658
H         -0.17812        3.42500       -0.86879
H          0.15663        3.61071        0.87172
