44
omegacsd_CUHNEY10_09.log	Energy:     -27.5816036
Cl        -4.64686        2.87380        0.48830
C         -2.99371        2.47219        0.30959
C         -2.43678        1.45115        1.09789
N         -1.13593        1.09386        0.98622
C         -0.35270        1.76765        0.08107
N          1.01227        1.36646        0.04419
C          2.05084        1.99276       -0.74345
O          1.87672        2.90644       -1.49928
C          3.30586        1.26280       -0.34501
N          4.55764        1.51937       -0.74741
C          5.51684        0.70956       -0.20486
C          5.20847       -0.31216        0.71774
N          3.92578       -0.57118        1.12117
C          2.98812        0.21652        0.57922
C          1.48248        0.15888        0.80390
O          0.99953       -0.97640        0.05613
C          0.34935       -1.98594        0.79427
O          0.24777       -1.92863        1.99837
N          0.03190       -3.05484       -0.05601
C         -0.10602       -2.79461       -1.51418
C         -1.51761       -2.29359       -1.89760
N         -2.62845       -2.80187       -1.03258
C         -2.25101       -4.08433       -0.37606
C         -0.96827       -4.02855        0.48445
C         -3.07003       -1.78356       -0.03436
C         -0.85532        2.80468       -0.73975
C         -2.19669        3.15528       -0.61689
H         -3.03240        0.90244        1.84068
H          6.54787        0.90372       -0.52770
H          5.98721       -0.95000        1.15654
H          1.13179        0.13344        1.86773
H          0.66932       -2.06169       -1.83548
H          0.12366       -3.75245       -2.03423
H         -1.52923       -1.18356       -1.92733
H         -1.75664       -2.63330       -2.93185
H         -2.13489       -4.84048       -1.18537
H         -3.10409       -4.43002        0.24682
H         -0.46761       -5.02307        0.50066
H         -1.21074       -3.77980        1.54389
H         -3.92623       -2.18478        0.53142
H         -3.43108       -0.89174       -0.57245
H         -2.30046       -1.46500        0.68571
H         -0.20600        3.32406       -1.45349
H         -2.62140        3.95144       -1.23326
