34
omegapdb_2f7p_14.log	Energy:    -113.4327429
C         -0.99778        0.14920       -0.99864
N          0.46962        0.02439       -1.03385
C          1.09617       -0.61949        0.16225
C          2.58090       -0.35109        0.16584
C          3.18130        0.28635        1.26076
C          4.56076        0.51442        1.26581
C          5.34424        0.11317        0.17960
C          4.74551       -0.51937       -0.91535
C          3.36851       -0.75316       -0.92376
C         -1.75813       -1.20623       -0.88057
O         -1.31433       -2.06879        0.16718
C         -3.20332       -0.76957       -0.49870
O         -3.88628       -1.78537        0.22479
C         -2.98584        0.44092        0.46611
O         -2.82886       -0.08134        1.79728
C         -1.61315        1.03635        0.11814
S         -1.71830        2.77131       -0.37169
H         -1.27083        0.57261       -2.00913
H          0.88819        0.95389       -1.18662
H          0.91219       -1.72255        0.07666
H          0.63281       -0.29870        1.12186
H          2.57986        0.60427        2.10985
H          5.02464        1.00713        2.11862
H          6.41740        0.29228        0.18556
H          5.35381       -0.83163       -1.76260
H          2.89716       -1.24323       -1.77651
H         -1.66940       -1.83789       -1.78538
H         -1.31515       -1.57652        1.03739
H         -3.85193       -0.53097       -1.36152
H         -3.24148       -2.50763        0.48944
H         -3.82787        1.15840        0.46925
H         -3.60551       -0.66748        2.00728
H         -0.97178        1.02203        1.04106
H         -2.42590        2.64909       -1.51422
