57
omegacsd_SPIRIL_10.log	Energy:     -30.1244191
C          3.20407       -1.40261        1.50107
C          3.66814       -0.91263        0.11176
C          4.57978       -2.01934       -0.51106
O          4.29388       -3.16740       -0.76806
N          5.83068       -1.45839       -0.77073
C          5.94436       -0.06017       -0.29209
N          4.58915        0.27449        0.27403
C          4.09903        1.60436        0.04973
C          3.00873        2.05076        0.82738
C          2.57126        3.36895        0.72214
C          3.20262        4.26262       -0.15094
C          4.28085        3.82328       -0.92254
C          4.72957        2.50417       -0.83228
C          2.48642       -0.69548       -0.85141
C          1.38328       -1.71883       -0.52964
N          0.77132       -1.53442        0.81980
C         -0.44790       -0.65926        0.77725
C         -1.62980       -1.48941        0.24325
C         -2.90794       -0.71367        0.23211
C         -4.08579       -1.22426       -0.16356
C         -5.31176       -0.38922       -0.15133
C         -5.82222        0.09265        1.06538
C         -6.97771        0.87724        1.08886
C         -7.59838        1.16386       -0.12998
C         -7.11891        0.70222       -1.35946
C         -5.96448       -0.08323       -1.35748
F         -8.70273        1.91475       -0.12012
C         -4.26197       -2.63117       -0.63912
C          1.75789       -1.00744        1.82200
H          3.87940       -1.01331        2.28939
H          3.29039       -2.51183        1.54576
H          6.63001       -1.96542       -1.12076
H          6.68315        0.02539        0.54233
H          6.25962        0.61175       -1.12849
H          2.51641        1.36238        1.52350
H          1.73217        3.70822        1.32962
H          2.85683        5.29037       -0.22571
H          4.77686        4.51277       -1.60574
H          5.56522        2.18009       -1.45156
H          2.80974       -0.79431       -1.90435
H          2.08006        0.33128       -0.76847
H          1.81411       -2.75180       -0.54190
H          0.60064       -1.70030       -1.31550
H         -0.68349       -0.31819        1.80902
H         -0.30696        0.25427        0.16201
H         -1.73883       -2.40746        0.86344
H         -1.40302       -1.86319       -0.77843
H         -2.84059        0.32264        0.56495
H         -5.31424       -0.15140        1.99875
H         -7.37878        1.25087        2.02923
H         -7.62667        0.94522       -2.29106
H         -5.56353       -0.45958       -2.29876
H         -3.86812       -3.35102        0.09348
H         -3.72403       -2.80222       -1.58216
H         -5.31502       -2.89046       -0.80919
H          1.46261       -1.44644        2.80229
H          1.70674        0.10591        1.93208
